<?xml version="1.0"?>
<VTKFile type="UnstructuredGrid"  version="0.1"  >
<UnstructuredGrid>
<Piece  NumberOfPoints="72" NumberOfCells="112">
<Points>
<DataArray  type="Float64"  NumberOfComponents="3"  format="ascii">0 0 0  1 0 0  2 0 0  3 0 0  4 0 0  5 0 0  6 0 0  7 0 0  0 1 0  1 1 0  2 1 0  3 1 0  4 1 0  5 1 0  6 1 0  7 1 0  0 2 0  1 2 0  2 2 0  3 2 0  4 2 0  5 2 0  6 2 0  7 2 0  0 3 0  1 3 0  2 3 0  3 3 0  4 3 0  5 3 0  6 3 0  7 3 0  0 4 0  1 4 0  2 4 0  3 4 0  4 4 0  5 4 0  6 4 0  7 4 0  0 5 0  1 5 0  2 5 0  3 5 0  4 5 0  5 5 0  6 5 0  7 5 0  0 6 0  1 6 0  2 6 0  3 6 0  4 6 0  5 6 0  6 6 0  7 6 0  0 7 0  1 7 0  2 7 0  3 7 0  4 7 0  5 7 0  6 7 0  7 7 0  0 8 0  1 8 0  2 8 0  3 8 0  4 8 0  5 8 0  6 8 0  7 8 0  </DataArray>
</Points>
<Cells>
<DataArray  type="UInt32"  Name="connectivity"  format="ascii">0 8 9  0 1 9  1 9 10  1 2 10  2 10 11  2 3 11  3 11 12  3 4 12  4 12 13  4 5 13  5 13 14  5 6 14  6 14 15  6 7 15  8 16 17  8 9 17  9 17 18  9 10 18  10 18 19  10 11 19  11 19 20  11 12 20  12 20 21  12 13 21  13 21 22  13 14 22  14 22 23  14 15 23  16 24 25  16 17 25  17 25 26  17 18 26  18 26 27  18 19 27  19 27 28  19 20 28  20 28 29  20 21 29  21 29 30  21 22 30  22 30 31  22 23 31  24 32 33  24 25 33  25 33 34  25 26 34  26 34 35  26 27 35  27 35 36  27 28 36  28 36 37  28 29 37  29 37 38  29 30 38  30 38 39  30 31 39  32 40 41  32 33 41  33 41 42  33 34 42  34 42 43  34 35 43  35 43 44  35 36 44  36 44 45  36 37 45  37 45 46  37 38 46  38 46 47  38 39 47  40 48 49  40 41 49  41 49 50  41 42 50  42 50 51  42 43 51  43 51 52  43 44 52  44 52 53  44 45 53  45 53 54  45 46 54  46 54 55  46 47 55  48 56 57  48 49 57  49 57 58  49 50 58  50 58 59  50 51 59  51 59 60  51 52 60  52 60 61  52 53 61  53 61 62  53 54 62  54 62 63  54 55 63  56 64 65  56 57 65  57 65 66  57 58 66  58 66 67  58 59 67  59 67 68  59 60 68  60 68 69  60 61 69  61 69 70  61 62 70  62 70 71  62 63 71  </DataArray>
<DataArray  type="UInt32"  Name="offsets"  format="ascii">3 6 9 12 15 18 21 24 27 30 33 36 39 42 45 48 51 54 57 60 63 66 69 72 75 78 81 84 87 90 93 96 99 102 105 108 111 114 117 120 123 126 129 132 135 138 141 144 147 150 153 156 159 162 165 168 171 174 177 180 183 186 189 192 195 198 201 204 207 210 213 216 219 222 225 228 231 234 237 240 243 246 249 252 255 258 261 264 267 270 273 276 279 282 285 288 291 294 297 300 303 306 309 312 315 318 321 324 327 330 333 336 </DataArray>
<DataArray  type="UInt8"  Name="types"  format="ascii">5 5 5 5 5 5 5 5 5 5 5 5 5 5 5 5 5 5 5 5 5 5 5 5 5 5 5 5 5 5 5 5 5 5 5 5 5 5 5 5 5 5 5 5 5 5 5 5 5 5 5 5 5 5 5 5 5 5 5 5 5 5 5 5 5 5 5 5 5 5 5 5 5 5 5 5 5 5 5 5 5 5 5 5 5 5 5 5 5 5 5 5 5 5 5 5 5 5 5 5 5 5 5 5 5 5 5 5 5 5 5 5 </DataArray>
</Cells>
<PointData  Scalars="ControlVisualization"> 
<DataArray  type="Float64"  Name="ControlVisualization"  format="ascii">1.0750329496189046e+00  1.0408641525684070e+00  8.6211714059945388e-01  6.4699193126968524e-01  7.3946913666851755e-01  9.3708172500401010e-01  9.8666347345652505e-01  9.9878229366864568e-01  1.0269791831552952e+00  1.0507111733184575e+00  9.7250184982570631e-01  8.0194740583496649e-01  7.9291328471320632e-01  9.3260098833359173e-01  9.8107356228545639e-01  9.7700096921309121e-01  9.1572738697298428e-01  9.9663053566841786e-01  1.1712748004220501e+00  1.1779221539310107e+00  1.0840575988400845e+00  1.0062053980870596e+00  9.5716883585485757e-01  9.3945645844061620e-01  9.8039039982144038e-01  9.9272266824956534e-01  1.2885235611445658e+00  1.5517711335519504e+00  1.4924043565155023e+00  1.2228240820539453e+00  1.0031158344330895e+00  9.2804393920093220e-01  1.0454273454213949e+00  1.0278820402878486e+00  1.1798698925782456e+00  1.4888682015431842e+00  1.5478908913604725e+00  1.3246846134975923e+00  1.0967237621289916e+00  1.0082486345824389e+00  1.0220261389416021e+00  1.0004709282325008e+00  9.7938367538162807e-01  1.1004484800617238e+00  1.1902286097050425e+00  1.1289839846330536e+00  1.0501412359713092e+00  1.0265509353935505e+00  9.7287158718832778e-01  9.4135956607531535e-01  8.5098371129119821e-01  7.9863604244239472e-01  8.0913843680181341e-01  8.4851657298306704e-01  9.0928947720206321e-01  9.5259398744746770e-01  9.5649970459060318e-01  9.1741448382606350e-01  8.1757458360183854e-01  7.2086193366516127e-01  6.8934067743396943e-01  7.4508291941657678e-01  8.4541163397503538e-01  9.0871279456364851e-01  9.7979515977179643e-01  9.3783516761705898e-01  8.4341871332981111e-01  7.3200098150679060e-01  6.8627472755601238e-01  7.4512834143179174e-01  8.5523030954416135e-01  9.3348883583210263e-01  </DataArray> 
</PointData> 
</Piece>
</UnstructuredGrid>
</VTKFile>