<?xml version="1.0"?>
<VTKFile type="UnstructuredGrid"  version="0.1"  >
<UnstructuredGrid>
<Piece  NumberOfPoints="72" NumberOfCells="112">
<Points>
<DataArray  type="Float64"  NumberOfComponents="3"  format="ascii">0 0 0  1 0 0  2 0 0  3 0 0  4 0 0  5 0 0  6 0 0  7 0 0  0 1 0  1 1 0  2 1 0  3 1 0  4 1 0  5 1 0  6 1 0  7 1 0  0 2 0  1 2 0  2 2 0  3 2 0  4 2 0  5 2 0  6 2 0  7 2 0  0 3 0  1 3 0  2 3 0  3 3 0  4 3 0  5 3 0  6 3 0  7 3 0  0 4 0  1 4 0  2 4 0  3 4 0  4 4 0  5 4 0  6 4 0  7 4 0  0 5 0  1 5 0  2 5 0  3 5 0  4 5 0  5 5 0  6 5 0  7 5 0  0 6 0  1 6 0  2 6 0  3 6 0  4 6 0  5 6 0  6 6 0  7 6 0  0 7 0  1 7 0  2 7 0  3 7 0  4 7 0  5 7 0  6 7 0  7 7 0  0 8 0  1 8 0  2 8 0  3 8 0  4 8 0  5 8 0  6 8 0  7 8 0  </DataArray>
</Points>
<Cells>
<DataArray  type="UInt32"  Name="connectivity"  format="ascii">0 8 9  0 1 9  1 9 10  1 2 10  2 10 11  2 3 11  3 11 12  3 4 12  4 12 13  4 5 13  5 13 14  5 6 14  6 14 15  6 7 15  8 16 17  8 9 17  9 17 18  9 10 18  10 18 19  10 11 19  11 19 20  11 12 20  12 20 21  12 13 21  13 21 22  13 14 22  14 22 23  14 15 23  16 24 25  16 17 25  17 25 26  17 18 26  18 26 27  18 19 27  19 27 28  19 20 28  20 28 29  20 21 29  21 29 30  21 22 30  22 30 31  22 23 31  24 32 33  24 25 33  25 33 34  25 26 34  26 34 35  26 27 35  27 35 36  27 28 36  28 36 37  28 29 37  29 37 38  29 30 38  30 38 39  30 31 39  32 40 41  32 33 41  33 41 42  33 34 42  34 42 43  34 35 43  35 43 44  35 36 44  36 44 45  36 37 45  37 45 46  37 38 46  38 46 47  38 39 47  40 48 49  40 41 49  41 49 50  41 42 50  42 50 51  42 43 51  43 51 52  43 44 52  44 52 53  44 45 53  45 53 54  45 46 54  46 54 55  46 47 55  48 56 57  48 49 57  49 57 58  49 50 58  50 58 59  50 51 59  51 59 60  51 52 60  52 60 61  52 53 61  53 61 62  53 54 62  54 62 63  54 55 63  56 64 65  56 57 65  57 65 66  57 58 66  58 66 67  58 59 67  59 67 68  59 60 68  60 68 69  60 61 69  61 69 70  61 62 70  62 70 71  62 63 71  </DataArray>
<DataArray  type="UInt32"  Name="offsets"  format="ascii">3 6 9 12 15 18 21 24 27 30 33 36 39 42 45 48 51 54 57 60 63 66 69 72 75 78 81 84 87 90 93 96 99 102 105 108 111 114 117 120 123 126 129 132 135 138 141 144 147 150 153 156 159 162 165 168 171 174 177 180 183 186 189 192 195 198 201 204 207 210 213 216 219 222 225 228 231 234 237 240 243 246 249 252 255 258 261 264 267 270 273 276 279 282 285 288 291 294 297 300 303 306 309 312 315 318 321 324 327 330 333 336 </DataArray>
<DataArray  type="UInt8"  Name="types"  format="ascii">5 5 5 5 5 5 5 5 5 5 5 5 5 5 5 5 5 5 5 5 5 5 5 5 5 5 5 5 5 5 5 5 5 5 5 5 5 5 5 5 5 5 5 5 5 5 5 5 5 5 5 5 5 5 5 5 5 5 5 5 5 5 5 5 5 5 5 5 5 5 5 5 5 5 5 5 5 5 5 5 5 5 5 5 5 5 5 5 5 5 5 5 5 5 5 5 5 5 5 5 5 5 5 5 5 5 5 5 5 5 5 5 </DataArray>
</Cells>
<PointData  Scalars="ControlVisualization"> 
<DataArray  type="Float64"  Name="ControlVisualization"  format="ascii">1.1531468361790211e+00  1.0945002971475857e+00  8.6822618721258116e-01  6.0621447207789814e-01  6.8954615523730700e-01  9.1023916249359715e-01  9.6659018860313051e-01  9.6062435616736430e-01  1.0479575175296230e+00  1.0717952659190462e+00  9.6912293870072752e-01  7.4687686716268709e-01  7.2927707135160247e-01  9.0058611309804271e-01  9.6657779033587077e-01  9.6119552747415116e-01  9.1723284186924825e-01  1.0010279859197928e+00  1.1649484699060022e+00  1.1320053069157427e+00  1.0252099167352697e+00  9.7463912044817835e-01  9.4474763777004300e-01  9.2530352606593458e-01  9.8241393555603429e-01  9.9467535932389184e-01  1.2750380055412087e+00  1.5100496804574775e+00  1.4383310461011138e+00  1.1885937554341386e+00  9.8838552992864415e-01  9.1795540873196690e-01  1.0655144539927521e+00  1.0315179201047151e+00  1.1592302685572471e+00  1.4472025407074289e+00  1.4978306726581030e+00  1.2896577252788597e+00  1.0850878244909765e+00  1.0143509014478025e+00  1.0539212016473276e+00  1.0089633313670288e+00  9.5954568878863011e-01  1.0646527204700331e+00  1.1513092900161499e+00  1.0998655463876930e+00  1.0401990875758664e+00  1.0384169135125105e+00  9.8961036842096972e-01  9.4176972817757176e-01  8.3477419836841327e-01  7.7416856048447202e-01  7.8576161348551299e-01  8.2730973828144605e-01  8.9068675116517493e-01  9.4231118657503654e-01  9.2440520972619322e-01  8.8642804667996544e-01  7.8804587336412935e-01  6.9366053739282418e-01  6.6379015013419762e-01  7.1437000663560657e-01  8.0001686741867395e-01  8.4784349419436134e-01  8.8755921943851313e-01  8.6752551577294656e-01  7.8507267162979821e-01  6.9038391344518490e-01  6.5317130457351824e-01  6.9989155507854006e-01  7.7960276529998895e-01  8.1445995196185872e-01  </DataArray> 
</PointData> 
</Piece>
</UnstructuredGrid>
</VTKFile>