<?xml version="1.0"?>
<VTKFile type="UnstructuredGrid"  version="0.1"  >
<UnstructuredGrid>
<Piece  NumberOfPoints="72" NumberOfCells="112">
<Points>
<DataArray  type="Float64"  NumberOfComponents="3"  format="ascii">0 0 0  1 0 0  2 0 0  3 0 0  4 0 0  5 0 0  6 0 0  7 0 0  0 1 0  1 1 0  2 1 0  3 1 0  4 1 0  5 1 0  6 1 0  7 1 0  0 2 0  1 2 0  2 2 0  3 2 0  4 2 0  5 2 0  6 2 0  7 2 0  0 3 0  1 3 0  2 3 0  3 3 0  4 3 0  5 3 0  6 3 0  7 3 0  0 4 0  1 4 0  2 4 0  3 4 0  4 4 0  5 4 0  6 4 0  7 4 0  0 5 0  1 5 0  2 5 0  3 5 0  4 5 0  5 5 0  6 5 0  7 5 0  0 6 0  1 6 0  2 6 0  3 6 0  4 6 0  5 6 0  6 6 0  7 6 0  0 7 0  1 7 0  2 7 0  3 7 0  4 7 0  5 7 0  6 7 0  7 7 0  0 8 0  1 8 0  2 8 0  3 8 0  4 8 0  5 8 0  6 8 0  7 8 0  </DataArray>
</Points>
<Cells>
<DataArray  type="UInt32"  Name="connectivity"  format="ascii">0 8 9  0 1 9  1 9 10  1 2 10  2 10 11  2 3 11  3 11 12  3 4 12  4 12 13  4 5 13  5 13 14  5 6 14  6 14 15  6 7 15  8 16 17  8 9 17  9 17 18  9 10 18  10 18 19  10 11 19  11 19 20  11 12 20  12 20 21  12 13 21  13 21 22  13 14 22  14 22 23  14 15 23  16 24 25  16 17 25  17 25 26  17 18 26  18 26 27  18 19 27  19 27 28  19 20 28  20 28 29  20 21 29  21 29 30  21 22 30  22 30 31  22 23 31  24 32 33  24 25 33  25 33 34  25 26 34  26 34 35  26 27 35  27 35 36  27 28 36  28 36 37  28 29 37  29 37 38  29 30 38  30 38 39  30 31 39  32 40 41  32 33 41  33 41 42  33 34 42  34 42 43  34 35 43  35 43 44  35 36 44  36 44 45  36 37 45  37 45 46  37 38 46  38 46 47  38 39 47  40 48 49  40 41 49  41 49 50  41 42 50  42 50 51  42 43 51  43 51 52  43 44 52  44 52 53  44 45 53  45 53 54  45 46 54  46 54 55  46 47 55  48 56 57  48 49 57  49 57 58  49 50 58  50 58 59  50 51 59  51 59 60  51 52 60  52 60 61  52 53 61  53 61 62  53 54 62  54 62 63  54 55 63  56 64 65  56 57 65  57 65 66  57 58 66  58 66 67  58 59 67  59 67 68  59 60 68  60 68 69  60 61 69  61 69 70  61 62 70  62 70 71  62 63 71  </DataArray>
<DataArray  type="UInt32"  Name="offsets"  format="ascii">3 6 9 12 15 18 21 24 27 30 33 36 39 42 45 48 51 54 57 60 63 66 69 72 75 78 81 84 87 90 93 96 99 102 105 108 111 114 117 120 123 126 129 132 135 138 141 144 147 150 153 156 159 162 165 168 171 174 177 180 183 186 189 192 195 198 201 204 207 210 213 216 219 222 225 228 231 234 237 240 243 246 249 252 255 258 261 264 267 270 273 276 279 282 285 288 291 294 297 300 303 306 309 312 315 318 321 324 327 330 333 336 </DataArray>
<DataArray  type="UInt8"  Name="types"  format="ascii">5 5 5 5 5 5 5 5 5 5 5 5 5 5 5 5 5 5 5 5 5 5 5 5 5 5 5 5 5 5 5 5 5 5 5 5 5 5 5 5 5 5 5 5 5 5 5 5 5 5 5 5 5 5 5 5 5 5 5 5 5 5 5 5 5 5 5 5 5 5 5 5 5 5 5 5 5 5 5 5 5 5 5 5 5 5 5 5 5 5 5 5 5 5 5 5 5 5 5 5 5 5 5 5 5 5 5 5 5 5 5 5 </DataArray>
</Cells>
<PointData  Scalars="ControlVisualization"> 
<DataArray  type="Float64"  Name="ControlVisualization"  format="ascii">1.1509733849439483e+00  1.0652751663590616e+00  8.2377145664106954e-01  5.5336148182160505e-01  6.2465649257400757e-01  8.2321708459371756e-01  8.8189065179795378e-01  8.9296795888776470e-01  1.0484156755752057e+00  1.0512051308021233e+00  9.2718161511945940e-01  6.9683261582745781e-01  6.7031125552807747e-01  8.3061207697469286e-01  9.0081834844658693e-01  9.0384490945112805e-01  8.9131324891996222e-01  9.6836151873342136e-01  1.1246143445660959e+00  1.0862983489054638e+00  9.7013608188661926e-01  9.1195077578034145e-01  8.9548322379423984e-01  8.9173507481893188e-01  9.5581883664478573e-01  9.5768420753138239e-01  1.2342690884503813e+00  1.4687833229486462e+00  1.3910227256350582e+00  1.1339238161760914e+00  9.4255781288028473e-01  8.8651496636678451e-01  1.0427718182128549e+00  1.0015417877840000e+00  1.1230167565196927e+00  1.4115194624390928e+00  1.4590557807915134e+00  1.2453954080576184e+00  1.0427574000002764e+00  9.7778878959963100e-01  1.0266085323245611e+00  9.8328630116184712e-01  9.3169759975499233e-01  1.0370217739507743e+00  1.1214396589084445e+00  1.0658057950426518e+00  1.0030030454014480e+00  1.0007846601803165e+00  9.5891606670465546e-01  9.2122398181264264e-01  8.1695975941465704e-01  7.5566827309694040e-01  7.6364791252651132e-01  8.0146747236840321e-01  8.6080233438902876e-01  9.0831756803768204e-01  9.0499106429115661e-01  8.7380891365989355e-01  7.7506228952632827e-01  6.7654115666831416e-01  6.4256211364372073e-01  6.9235817685780920e-01  7.8051074096255879e-01  8.3148508325901371e-01  8.8154834086066880e-01  8.5809461352151861e-01  7.6994150190096033e-01  6.6911884332290950e-01  6.2883087386773229e-01  6.7864164513663561e-01  7.6858619127080807e-01  8.1667586465616737e-01  </DataArray> 
</PointData> 
</Piece>
</UnstructuredGrid>
</VTKFile>