<?xml version="1.0"?>
<VTKFile type="UnstructuredGrid"  version="0.1"  >
<UnstructuredGrid>
<Piece  NumberOfPoints="72" NumberOfCells="112">
<Points>
<DataArray  type="Float64"  NumberOfComponents="3"  format="ascii">0 0 0  1 0 0  2 0 0  3 0 0  4 0 0  5 0 0  6 0 0  7 0 0  0 1 0  1 1 0  2 1 0  3 1 0  4 1 0  5 1 0  6 1 0  7 1 0  0 2 0  1 2 0  2 2 0  3 2 0  4 2 0  5 2 0  6 2 0  7 2 0  0 3 0  1 3 0  2 3 0  3 3 0  4 3 0  5 3 0  6 3 0  7 3 0  0 4 0  1 4 0  2 4 0  3 4 0  4 4 0  5 4 0  6 4 0  7 4 0  0 5 0  1 5 0  2 5 0  3 5 0  4 5 0  5 5 0  6 5 0  7 5 0  0 6 0  1 6 0  2 6 0  3 6 0  4 6 0  5 6 0  6 6 0  7 6 0  0 7 0  1 7 0  2 7 0  3 7 0  4 7 0  5 7 0  6 7 0  7 7 0  0 8 0  1 8 0  2 8 0  3 8 0  4 8 0  5 8 0  6 8 0  7 8 0  </DataArray>
</Points>
<Cells>
<DataArray  type="UInt32"  Name="connectivity"  format="ascii">0 8 9  0 1 9  1 9 10  1 2 10  2 10 11  2 3 11  3 11 12  3 4 12  4 12 13  4 5 13  5 13 14  5 6 14  6 14 15  6 7 15  8 16 17  8 9 17  9 17 18  9 10 18  10 18 19  10 11 19  11 19 20  11 12 20  12 20 21  12 13 21  13 21 22  13 14 22  14 22 23  14 15 23  16 24 25  16 17 25  17 25 26  17 18 26  18 26 27  18 19 27  19 27 28  19 20 28  20 28 29  20 21 29  21 29 30  21 22 30  22 30 31  22 23 31  24 32 33  24 25 33  25 33 34  25 26 34  26 34 35  26 27 35  27 35 36  27 28 36  28 36 37  28 29 37  29 37 38  29 30 38  30 38 39  30 31 39  32 40 41  32 33 41  33 41 42  33 34 42  34 42 43  34 35 43  35 43 44  35 36 44  36 44 45  36 37 45  37 45 46  37 38 46  38 46 47  38 39 47  40 48 49  40 41 49  41 49 50  41 42 50  42 50 51  42 43 51  43 51 52  43 44 52  44 52 53  44 45 53  45 53 54  45 46 54  46 54 55  46 47 55  48 56 57  48 49 57  49 57 58  49 50 58  50 58 59  50 51 59  51 59 60  51 52 60  52 60 61  52 53 61  53 61 62  53 54 62  54 62 63  54 55 63  56 64 65  56 57 65  57 65 66  57 58 66  58 66 67  58 59 67  59 67 68  59 60 68  60 68 69  60 61 69  61 69 70  61 62 70  62 70 71  62 63 71  </DataArray>
<DataArray  type="UInt32"  Name="offsets"  format="ascii">3 6 9 12 15 18 21 24 27 30 33 36 39 42 45 48 51 54 57 60 63 66 69 72 75 78 81 84 87 90 93 96 99 102 105 108 111 114 117 120 123 126 129 132 135 138 141 144 147 150 153 156 159 162 165 168 171 174 177 180 183 186 189 192 195 198 201 204 207 210 213 216 219 222 225 228 231 234 237 240 243 246 249 252 255 258 261 264 267 270 273 276 279 282 285 288 291 294 297 300 303 306 309 312 315 318 321 324 327 330 333 336 </DataArray>
<DataArray  type="UInt8"  Name="types"  format="ascii">5 5 5 5 5 5 5 5 5 5 5 5 5 5 5 5 5 5 5 5 5 5 5 5 5 5 5 5 5 5 5 5 5 5 5 5 5 5 5 5 5 5 5 5 5 5 5 5 5 5 5 5 5 5 5 5 5 5 5 5 5 5 5 5 5 5 5 5 5 5 5 5 5 5 5 5 5 5 5 5 5 5 5 5 5 5 5 5 5 5 5 5 5 5 5 5 5 5 5 5 5 5 5 5 5 5 5 5 5 5 5 5 </DataArray>
</Cells>
<PointData  Scalars="ControlVisualization"> 
<DataArray  type="Float64"  Name="ControlVisualization"  format="ascii">1.1589678749556012e+00  1.0992448256548937e+00  8.7016114361701946e-01  6.0701670699998644e-01  6.9034771218475688e-01  9.1182323946001698e-01  9.6728922973369103e-01  9.5795010594975538e-01  1.0485429672272222e+00  1.0731516501140608e+00  9.7024126688348955e-01  7.4460865720450664e-01  7.2583884934546172e-01  9.0002943006894054e-01  9.6768970078531058e-01  9.6098316585302301e-01  9.1757410610588375e-01  1.0017560718410830e+00  1.1660816853760922e+00  1.1301628488788369e+00  1.0230996211738537e+00  9.7594604406866947e-01  9.4517420002139640e-01  9.2347152951121991e-01  9.8216381763971772e-01  9.9591499042708620e-01  1.2755907053714504e+00  1.5081765010454797e+00  1.4365838959172084e+00  1.1886537394226893e+00  9.8743888979674732e-01  9.1707317669472355e-01  1.0667912501344952e+00  1.0321463822368471e+00  1.1583540389510922e+00  1.4443032078168692e+00  1.4946926716316855e+00  1.2883086749821175e+00  1.0839525651469917e+00  1.0157246977024073e+00  1.0573836668479459e+00  1.0095462736555718e+00  9.5849330049788473e-01  1.0614329034194394e+00  1.1481981329715250e+00  1.0986657512093478e+00  1.0402292931259922e+00  1.0403634738347636e+00  9.9308302525593894e-01  9.4214707902479833e-01  8.3348651919409344e-01  7.7204365068335401e-01  7.8343442623183179e-01  8.2576834803745869e-01  8.9022335160867494e-01  9.4325954034962944e-01  9.2421250135237032e-01  8.8412373486348950e-01  7.8440371971877398e-01  6.8986960861204216e-01  6.6056915208847389e-01  7.1118701931809136e-01  7.9653523308748664e-01  8.4442677796506294e-01  8.8179161427252239e-01  8.6293678922175032e-01  7.8154330574901099e-01  6.8791878013036056e-01  6.5088069711494145e-01  6.9634926106583594e-01  7.7371105036306798e-01  8.0561648002003317e-01  </DataArray> 
</PointData> 
</Piece>
</UnstructuredGrid>
</VTKFile>