<?xml version="1.0"?>
<VTKFile type="UnstructuredGrid"  version="0.1"  >
<UnstructuredGrid>
<Piece  NumberOfPoints="72" NumberOfCells="112">
<Points>
<DataArray  type="Float64"  NumberOfComponents="3"  format="ascii">0 0 0  1 0 0  2 0 0  3 0 0  4 0 0  5 0 0  6 0 0  7 0 0  0 1 0  1 1 0  2 1 0  3 1 0  4 1 0  5 1 0  6 1 0  7 1 0  0 2 0  1 2 0  2 2 0  3 2 0  4 2 0  5 2 0  6 2 0  7 2 0  0 3 0  1 3 0  2 3 0  3 3 0  4 3 0  5 3 0  6 3 0  7 3 0  0 4 0  1 4 0  2 4 0  3 4 0  4 4 0  5 4 0  6 4 0  7 4 0  0 5 0  1 5 0  2 5 0  3 5 0  4 5 0  5 5 0  6 5 0  7 5 0  0 6 0  1 6 0  2 6 0  3 6 0  4 6 0  5 6 0  6 6 0  7 6 0  0 7 0  1 7 0  2 7 0  3 7 0  4 7 0  5 7 0  6 7 0  7 7 0  0 8 0  1 8 0  2 8 0  3 8 0  4 8 0  5 8 0  6 8 0  7 8 0  </DataArray>
</Points>
<Cells>
<DataArray  type="UInt32"  Name="connectivity"  format="ascii">0 8 9  0 1 9  1 9 10  1 2 10  2 10 11  2 3 11  3 11 12  3 4 12  4 12 13  4 5 13  5 13 14  5 6 14  6 14 15  6 7 15  8 16 17  8 9 17  9 17 18  9 10 18  10 18 19  10 11 19  11 19 20  11 12 20  12 20 21  12 13 21  13 21 22  13 14 22  14 22 23  14 15 23  16 24 25  16 17 25  17 25 26  17 18 26  18 26 27  18 19 27  19 27 28  19 20 28  20 28 29  20 21 29  21 29 30  21 22 30  22 30 31  22 23 31  24 32 33  24 25 33  25 33 34  25 26 34  26 34 35  26 27 35  27 35 36  27 28 36  28 36 37  28 29 37  29 37 38  29 30 38  30 38 39  30 31 39  32 40 41  32 33 41  33 41 42  33 34 42  34 42 43  34 35 43  35 43 44  35 36 44  36 44 45  36 37 45  37 45 46  37 38 46  38 46 47  38 39 47  40 48 49  40 41 49  41 49 50  41 42 50  42 50 51  42 43 51  43 51 52  43 44 52  44 52 53  44 45 53  45 53 54  45 46 54  46 54 55  46 47 55  48 56 57  48 49 57  49 57 58  49 50 58  50 58 59  50 51 59  51 59 60  51 52 60  52 60 61  52 53 61  53 61 62  53 54 62  54 62 63  54 55 63  56 64 65  56 57 65  57 65 66  57 58 66  58 66 67  58 59 67  59 67 68  59 60 68  60 68 69  60 61 69  61 69 70  61 62 70  62 70 71  62 63 71  </DataArray>
<DataArray  type="UInt32"  Name="offsets"  format="ascii">3 6 9 12 15 18 21 24 27 30 33 36 39 42 45 48 51 54 57 60 63 66 69 72 75 78 81 84 87 90 93 96 99 102 105 108 111 114 117 120 123 126 129 132 135 138 141 144 147 150 153 156 159 162 165 168 171 174 177 180 183 186 189 192 195 198 201 204 207 210 213 216 219 222 225 228 231 234 237 240 243 246 249 252 255 258 261 264 267 270 273 276 279 282 285 288 291 294 297 300 303 306 309 312 315 318 321 324 327 330 333 336 </DataArray>
<DataArray  type="UInt8"  Name="types"  format="ascii">5 5 5 5 5 5 5 5 5 5 5 5 5 5 5 5 5 5 5 5 5 5 5 5 5 5 5 5 5 5 5 5 5 5 5 5 5 5 5 5 5 5 5 5 5 5 5 5 5 5 5 5 5 5 5 5 5 5 5 5 5 5 5 5 5 5 5 5 5 5 5 5 5 5 5 5 5 5 5 5 5 5 5 5 5 5 5 5 5 5 5 5 5 5 5 5 5 5 5 5 5 5 5 5 5 5 5 5 5 5 5 5 </DataArray>
</Cells>
<PointData  Scalars="ControlVisualization"> 
<DataArray  type="Float64"  Name="ControlVisualization"  format="ascii">1.0001846645432149e+00  1.0005925906053730e+00  9.9974441509360468e-01  9.9911468897527433e-01  9.9935818079226979e-01  1.0000043717317504e+00  1.0001002872857858e+00  1.0000000000000000e+00  9.9963104209679454e-01  1.0013588067235573e+00  1.0007901073064516e+00  9.9920958079503874e-01  9.9876536785967962e-01  9.9944974165227862e-01  9.9974478851012660e-01  9.9988618923354500e-01  9.9859654479194437e-01  1.0000119885934486e+00  1.0025561984505658e+00  1.0014854381560199e+00  1.0002989022918567e+00  9.9975331459691752e-01  9.9942085854037899e-01  9.9957498752388163e-01  9.9897764421903579e-01  9.9844911862092978e-01  1.0022559162510747e+00  1.0040696589065543e+00  1.0029703362037006e+00  1.0011344833630778e+00  9.9999853528341720e-01  9.9976986728189687e-01  9.9947518090859211e-01  9.9864980863714625e-01  1.0002133675418308e+00  1.0029491847865823e+00  1.0035344732605493e+00  1.0019865933281993e+00  1.0005785411250641e+00  1.0000864092630626e+00  9.9970320138307800e-01  9.9913412444946814e-01  9.9900616121483365e-01  1.0000908741172438e+00  1.0012274410587521e+00  1.0010301859629123e+00  1.0002462357097719e+00  1.0000357658969432e+00  9.9979473984069289e-01  9.9937943572419419e-01  9.9874733320380760e-01  9.9840985023292395e-01  9.9885636019884627e-01  9.9948829179067866e-01  9.9960583033516870e-01  9.9978005168646611e-01  9.9986233425565707e-01  9.9947811025958111e-01  9.9888117569500967e-01  9.9818189054515760e-01  9.9802082644910839e-01  9.9859559052974012e-01  9.9930249049986120e-01  9.9971738933847143e-01  1.0000000000000000e+00  9.9985188168028261e-01  9.9960000900089196e-01  9.9924753679872169e-01  9.9902669773502673e-01  9.9912724487133331e-01  9.9950120677815202e-01  9.9982982382876784e-01  </DataArray> 
</PointData> 
</Piece>
</UnstructuredGrid>
</VTKFile>