<?xml version="1.0"?>
<VTKFile type="UnstructuredGrid"  version="0.1"  >
<UnstructuredGrid>
<Piece  NumberOfPoints="72" NumberOfCells="112">
<Points>
<DataArray  type="Float64"  NumberOfComponents="3"  format="ascii">0 0 0  1 0 0  2 0 0  3 0 0  4 0 0  5 0 0  6 0 0  7 0 0  0 1 0  1 1 0  2 1 0  3 1 0  4 1 0  5 1 0  6 1 0  7 1 0  0 2 0  1 2 0  2 2 0  3 2 0  4 2 0  5 2 0  6 2 0  7 2 0  0 3 0  1 3 0  2 3 0  3 3 0  4 3 0  5 3 0  6 3 0  7 3 0  0 4 0  1 4 0  2 4 0  3 4 0  4 4 0  5 4 0  6 4 0  7 4 0  0 5 0  1 5 0  2 5 0  3 5 0  4 5 0  5 5 0  6 5 0  7 5 0  0 6 0  1 6 0  2 6 0  3 6 0  4 6 0  5 6 0  6 6 0  7 6 0  0 7 0  1 7 0  2 7 0  3 7 0  4 7 0  5 7 0  6 7 0  7 7 0  0 8 0  1 8 0  2 8 0  3 8 0  4 8 0  5 8 0  6 8 0  7 8 0  </DataArray>
</Points>
<Cells>
<DataArray  type="UInt32"  Name="connectivity"  format="ascii">0 8 9  0 1 9  1 9 10  1 2 10  2 10 11  2 3 11  3 11 12  3 4 12  4 12 13  4 5 13  5 13 14  5 6 14  6 14 15  6 7 15  8 16 17  8 9 17  9 17 18  9 10 18  10 18 19  10 11 19  11 19 20  11 12 20  12 20 21  12 13 21  13 21 22  13 14 22  14 22 23  14 15 23  16 24 25  16 17 25  17 25 26  17 18 26  18 26 27  18 19 27  19 27 28  19 20 28  20 28 29  20 21 29  21 29 30  21 22 30  22 30 31  22 23 31  24 32 33  24 25 33  25 33 34  25 26 34  26 34 35  26 27 35  27 35 36  27 28 36  28 36 37  28 29 37  29 37 38  29 30 38  30 38 39  30 31 39  32 40 41  32 33 41  33 41 42  33 34 42  34 42 43  34 35 43  35 43 44  35 36 44  36 44 45  36 37 45  37 45 46  37 38 46  38 46 47  38 39 47  40 48 49  40 41 49  41 49 50  41 42 50  42 50 51  42 43 51  43 51 52  43 44 52  44 52 53  44 45 53  45 53 54  45 46 54  46 54 55  46 47 55  48 56 57  48 49 57  49 57 58  49 50 58  50 58 59  50 51 59  51 59 60  51 52 60  52 60 61  52 53 61  53 61 62  53 54 62  54 62 63  54 55 63  56 64 65  56 57 65  57 65 66  57 58 66  58 66 67  58 59 67  59 67 68  59 60 68  60 68 69  60 61 69  61 69 70  61 62 70  62 70 71  62 63 71  </DataArray>
<DataArray  type="UInt32"  Name="offsets"  format="ascii">3 6 9 12 15 18 21 24 27 30 33 36 39 42 45 48 51 54 57 60 63 66 69 72 75 78 81 84 87 90 93 96 99 102 105 108 111 114 117 120 123 126 129 132 135 138 141 144 147 150 153 156 159 162 165 168 171 174 177 180 183 186 189 192 195 198 201 204 207 210 213 216 219 222 225 228 231 234 237 240 243 246 249 252 255 258 261 264 267 270 273 276 279 282 285 288 291 294 297 300 303 306 309 312 315 318 321 324 327 330 333 336 </DataArray>
<DataArray  type="UInt8"  Name="types"  format="ascii">5 5 5 5 5 5 5 5 5 5 5 5 5 5 5 5 5 5 5 5 5 5 5 5 5 5 5 5 5 5 5 5 5 5 5 5 5 5 5 5 5 5 5 5 5 5 5 5 5 5 5 5 5 5 5 5 5 5 5 5 5 5 5 5 5 5 5 5 5 5 5 5 5 5 5 5 5 5 5 5 5 5 5 5 5 5 5 5 5 5 5 5 5 5 5 5 5 5 5 5 5 5 5 5 5 5 5 5 5 5 5 5 </DataArray>
</Cells>
<PointData  Scalars="ControlVisualization"> 
<DataArray  type="Float64"  Name="ControlVisualization"  format="ascii">1.1516900101917085e+00  1.0655112222488854e+00  8.2339789593902990e-01  5.5286410441061185e-01  6.2430278438778597e-01  8.2324861890240730e-01  8.8185708069533830e-01  8.9275968824571350e-01  1.0486072408478515e+00  1.0512095177737126e+00  9.2674175586316221e-01  6.9603221770120816e-01  6.6957982941485283e-01  8.3037090389178769e-01  9.0074165312702670e-01  9.0379112589199084e-01  8.9128504737636116e-01  9.6805856909625798e-01  1.1240994312165484e+00  1.0855618028222189e+00  9.6954852125691238e-01  9.1175855378696302e-01  8.9555697583848903e-01  8.9180410273623933e-01  9.5559973126194708e-01  9.5740063868054026e-01  1.2337792536056595e+00  1.4682022000873860e+00  1.3905907625059262e+00  1.1337095353102538e+00  9.4242401789753183e-01  8.8647365367540976e-01  1.0425286426144071e+00  1.0011786524238271e+00  1.1224997900289493e+00  1.4109975825662266e+00  1.4586611974357115e+00  1.2451310676882097e+00  1.0425456577142560e+00  9.7767782852008922e-01  1.0264254030767626e+00  9.8296516588465677e-01  9.3121096774529744e-01  1.0365457645846712e+00  1.1210566553382380e+00  1.0655015696777481e+00  1.0027962446026841e+00  1.0007633757384768e+00  9.5877791739394458e-01  9.2092302082473876e-01  8.1651346835946159e-01  7.5522963584670133e-01  7.6331875125214044e-01  8.0124733220064071e-01  8.6067810007017786e-01  9.0832576605846127e-01  9.0456449156301599e-01  8.7336397052252213e-01  7.7463536392821664e-01  6.7619261687151644e-01  6.4231623482218536e-01  6.9222836272790689e-01  7.8034905452020442e-01  8.3124887181000406e-01  8.8090552129401833e-01  8.5749442634497275e-01  7.6941135548630801e-01  6.6867810433912400e-01  6.2854671298175946e-01  6.7852365849024587e-01  7.6837757075089286e-01  8.1623536240015215e-01  </DataArray> 
</PointData> 
</Piece>
</UnstructuredGrid>
</VTKFile>