<?xml version="1.0"?>
<VTKFile type="UnstructuredGrid"  version="0.1"  >
<UnstructuredGrid>
<Piece  NumberOfPoints="72" NumberOfCells="112">
<Points>
<DataArray  type="Float64"  NumberOfComponents="3"  format="ascii">0 0 0  1 0 0  2 0 0  3 0 0  4 0 0  5 0 0  6 0 0  7 0 0  0 1 0  1 1 0  2 1 0  3 1 0  4 1 0  5 1 0  6 1 0  7 1 0  0 2 0  1 2 0  2 2 0  3 2 0  4 2 0  5 2 0  6 2 0  7 2 0  0 3 0  1 3 0  2 3 0  3 3 0  4 3 0  5 3 0  6 3 0  7 3 0  0 4 0  1 4 0  2 4 0  3 4 0  4 4 0  5 4 0  6 4 0  7 4 0  0 5 0  1 5 0  2 5 0  3 5 0  4 5 0  5 5 0  6 5 0  7 5 0  0 6 0  1 6 0  2 6 0  3 6 0  4 6 0  5 6 0  6 6 0  7 6 0  0 7 0  1 7 0  2 7 0  3 7 0  4 7 0  5 7 0  6 7 0  7 7 0  0 8 0  1 8 0  2 8 0  3 8 0  4 8 0  5 8 0  6 8 0  7 8 0  </DataArray>
</Points>
<Cells>
<DataArray  type="UInt32"  Name="connectivity"  format="ascii">0 8 9  0 1 9  1 9 10  1 2 10  2 10 11  2 3 11  3 11 12  3 4 12  4 12 13  4 5 13  5 13 14  5 6 14  6 14 15  6 7 15  8 16 17  8 9 17  9 17 18  9 10 18  10 18 19  10 11 19  11 19 20  11 12 20  12 20 21  12 13 21  13 21 22  13 14 22  14 22 23  14 15 23  16 24 25  16 17 25  17 25 26  17 18 26  18 26 27  18 19 27  19 27 28  19 20 28  20 28 29  20 21 29  21 29 30  21 22 30  22 30 31  22 23 31  24 32 33  24 25 33  25 33 34  25 26 34  26 34 35  26 27 35  27 35 36  27 28 36  28 36 37  28 29 37  29 37 38  29 30 38  30 38 39  30 31 39  32 40 41  32 33 41  33 41 42  33 34 42  34 42 43  34 35 43  35 43 44  35 36 44  36 44 45  36 37 45  37 45 46  37 38 46  38 46 47  38 39 47  40 48 49  40 41 49  41 49 50  41 42 50  42 50 51  42 43 51  43 51 52  43 44 52  44 52 53  44 45 53  45 53 54  45 46 54  46 54 55  46 47 55  48 56 57  48 49 57  49 57 58  49 50 58  50 58 59  50 51 59  51 59 60  51 52 60  52 60 61  52 53 61  53 61 62  53 54 62  54 62 63  54 55 63  56 64 65  56 57 65  57 65 66  57 58 66  58 66 67  58 59 67  59 67 68  59 60 68  60 68 69  60 61 69  61 69 70  61 62 70  62 70 71  62 63 71  </DataArray>
<DataArray  type="UInt32"  Name="offsets"  format="ascii">3 6 9 12 15 18 21 24 27 30 33 36 39 42 45 48 51 54 57 60 63 66 69 72 75 78 81 84 87 90 93 96 99 102 105 108 111 114 117 120 123 126 129 132 135 138 141 144 147 150 153 156 159 162 165 168 171 174 177 180 183 186 189 192 195 198 201 204 207 210 213 216 219 222 225 228 231 234 237 240 243 246 249 252 255 258 261 264 267 270 273 276 279 282 285 288 291 294 297 300 303 306 309 312 315 318 321 324 327 330 333 336 </DataArray>
<DataArray  type="UInt8"  Name="types"  format="ascii">5 5 5 5 5 5 5 5 5 5 5 5 5 5 5 5 5 5 5 5 5 5 5 5 5 5 5 5 5 5 5 5 5 5 5 5 5 5 5 5 5 5 5 5 5 5 5 5 5 5 5 5 5 5 5 5 5 5 5 5 5 5 5 5 5 5 5 5 5 5 5 5 5 5 5 5 5 5 5 5 5 5 5 5 5 5 5 5 5 5 5 5 5 5 5 5 5 5 5 5 5 5 5 5 5 5 5 5 5 5 5 5 </DataArray>
</Cells>
<PointData  Scalars="ControlVisualization"> 
<DataArray  type="Float64"  Name="ControlVisualization"  format="ascii">1.1495442429587295e+00  1.0904476732023514e+00  8.6487390316161739e-01  6.0078025120620704e-01  6.8287804591835932e-01  9.0381897170475511e-01  9.6225657561355649e-01  9.6108868406174819e-01  1.0490848647700810e+00  1.0705074630167983e+00  9.6577600269285346e-01  7.4514791907200162e-01  7.2862499843094919e-01  8.9751479341474982e-01  9.6186445316648006e-01  9.5855721541578720e-01  9.1686030522114981e-01  9.9935563163889929e-01  1.1613325471354665e+00  1.1304455417682031e+00  1.0226728223934431e+00  9.6806493294678619e-01  9.4048779408999306e-01  9.2585098488083772e-01  9.8239432063822840e-01  9.9151025547985938e-01  1.2716204807549529e+00  1.5085023521573098e+00  1.4356566087309146e+00  1.1831829473517999e+00  9.8602351717031467e-01  9.1680560690447910e-01  1.0636072702070756e+00  1.0292114128067555e+00  1.1571835303553313e+00  1.4472655122339324e+00  1.4974347853222909e+00  1.2866163994910966e+00  1.0827640779001171e+00  1.0093779435835564e+00  1.0490616145249285e+00  1.0066676080523687e+00  9.5805161290912644e-01  1.0656044486579932e+00  1.1519418542093316e+00  1.0975010644145280e+00  1.0362074291259704e+00  1.0326338192784967e+00  9.8314971193036016e-01  9.3953441269040006e-01  8.3391596470436413e-01  7.7430986463904961e-01  7.8624871364854021e-01  8.2639549185617900e-01  8.8766404138422317e-01  9.3712557509744354e-01  9.1998162036773734e-01  8.8653627039359273e-01  7.9044600674917753e-01  6.9632022237572588e-01  6.6588709447391137e-01  7.1584120446174881e-01  8.0039507522757358e-01  8.4684847515249595e-01  8.8772140474842465e-01  8.6836691728731263e-01  7.8619345199677482e-01  6.9134570529135531e-01  6.5425708229231927e-01  7.0181958925672949e-01  7.8240936234651970e-01  8.1847752580564970e-01  </DataArray> 
</PointData> 
</Piece>
</UnstructuredGrid>
</VTKFile>