<?xml version="1.0"?>
<VTKFile type="UnstructuredGrid"  version="0.1"  >
<UnstructuredGrid>
<Piece  NumberOfPoints="72" NumberOfCells="112">
<Points>
<DataArray  type="Float64"  NumberOfComponents="3"  format="ascii">0 0 0  1 0 0  2 0 0  3 0 0  4 0 0  5 0 0  6 0 0  7 0 0  0 1 0  1 1 0  2 1 0  3 1 0  4 1 0  5 1 0  6 1 0  7 1 0  0 2 0  1 2 0  2 2 0  3 2 0  4 2 0  5 2 0  6 2 0  7 2 0  0 3 0  1 3 0  2 3 0  3 3 0  4 3 0  5 3 0  6 3 0  7 3 0  0 4 0  1 4 0  2 4 0  3 4 0  4 4 0  5 4 0  6 4 0  7 4 0  0 5 0  1 5 0  2 5 0  3 5 0  4 5 0  5 5 0  6 5 0  7 5 0  0 6 0  1 6 0  2 6 0  3 6 0  4 6 0  5 6 0  6 6 0  7 6 0  0 7 0  1 7 0  2 7 0  3 7 0  4 7 0  5 7 0  6 7 0  7 7 0  0 8 0  1 8 0  2 8 0  3 8 0  4 8 0  5 8 0  6 8 0  7 8 0  </DataArray>
</Points>
<Cells>
<DataArray  type="UInt32"  Name="connectivity"  format="ascii">0 8 9  0 1 9  1 9 10  1 2 10  2 10 11  2 3 11  3 11 12  3 4 12  4 12 13  4 5 13  5 13 14  5 6 14  6 14 15  6 7 15  8 16 17  8 9 17  9 17 18  9 10 18  10 18 19  10 11 19  11 19 20  11 12 20  12 20 21  12 13 21  13 21 22  13 14 22  14 22 23  14 15 23  16 24 25  16 17 25  17 25 26  17 18 26  18 26 27  18 19 27  19 27 28  19 20 28  20 28 29  20 21 29  21 29 30  21 22 30  22 30 31  22 23 31  24 32 33  24 25 33  25 33 34  25 26 34  26 34 35  26 27 35  27 35 36  27 28 36  28 36 37  28 29 37  29 37 38  29 30 38  30 38 39  30 31 39  32 40 41  32 33 41  33 41 42  33 34 42  34 42 43  34 35 43  35 43 44  35 36 44  36 44 45  36 37 45  37 45 46  37 38 46  38 46 47  38 39 47  40 48 49  40 41 49  41 49 50  41 42 50  42 50 51  42 43 51  43 51 52  43 44 52  44 52 53  44 45 53  45 53 54  45 46 54  46 54 55  46 47 55  48 56 57  48 49 57  49 57 58  49 50 58  50 58 59  50 51 59  51 59 60  51 52 60  52 60 61  52 53 61  53 61 62  53 54 62  54 62 63  54 55 63  56 64 65  56 57 65  57 65 66  57 58 66  58 66 67  58 59 67  59 67 68  59 60 68  60 68 69  60 61 69  61 69 70  61 62 70  62 70 71  62 63 71  </DataArray>
<DataArray  type="UInt32"  Name="offsets"  format="ascii">3 6 9 12 15 18 21 24 27 30 33 36 39 42 45 48 51 54 57 60 63 66 69 72 75 78 81 84 87 90 93 96 99 102 105 108 111 114 117 120 123 126 129 132 135 138 141 144 147 150 153 156 159 162 165 168 171 174 177 180 183 186 189 192 195 198 201 204 207 210 213 216 219 222 225 228 231 234 237 240 243 246 249 252 255 258 261 264 267 270 273 276 279 282 285 288 291 294 297 300 303 306 309 312 315 318 321 324 327 330 333 336 </DataArray>
<DataArray  type="UInt8"  Name="types"  format="ascii">5 5 5 5 5 5 5 5 5 5 5 5 5 5 5 5 5 5 5 5 5 5 5 5 5 5 5 5 5 5 5 5 5 5 5 5 5 5 5 5 5 5 5 5 5 5 5 5 5 5 5 5 5 5 5 5 5 5 5 5 5 5 5 5 5 5 5 5 5 5 5 5 5 5 5 5 5 5 5 5 5 5 5 5 5 5 5 5 5 5 5 5 5 5 5 5 5 5 5 5 5 5 5 5 5 5 5 5 5 5 5 5 </DataArray>
</Cells>
<PointData  Scalars="ControlVisualization"> 
<DataArray  type="Float64"  Name="ControlVisualization"  format="ascii">1.1514778279304940e+00  1.0660560060148676e+00  8.2308158389393393e-01  5.5157557948619318e-01  6.2355018222714231e-01  8.2280936284245898e-01  8.8222432603571954e-01  8.9467052829100113e-01  1.0488807848461381e+00  1.0514078189962286e+00  9.2653453051573853e-01  6.9542409703752295e-01  6.6897292636235717e-01  8.3008349269879445e-01  9.0088758594998930e-01  9.0451312753947533e-01  8.9190778769227130e-01  9.6815279187168901e-01  1.1242109240782407e+00  1.0853671898598323e+00  9.6936454866394461e-01  9.1180802999378352e-01  8.9566479988056513e-01  8.9208812091795975e-01  9.5592999733392892e-01  9.5697312721616801e-01  1.2336551811987708e+00  1.4679148930715669e+00  1.3903557168842349e+00  1.1336718936931509e+00  9.4250748096179138e-01  8.8633590732085887e-01  1.0422041716783415e+00  1.0003422593013704e+00  1.1217353040892306e+00  1.4104822743996241e+00  1.4582125087901692e+00  1.2451469942940876e+00  1.0425379760682603e+00  9.7766488544473451e-01  1.0255759924129555e+00  9.8196309588081088e-01  9.3054560934907171e-01  1.0360496435762940e+00  1.1210018767719367e+00  1.0658517153963158e+00  1.0030302725753069e+00  1.0003138171987345e+00  9.5709599945234314e-01  9.1986005507469115e-01  8.1621240186206501e-01  7.5528259847390222e-01  7.6343073909395098e-01  8.0140204543240157e-01  8.6070753763207974e-01  9.0769067399935144e-01  9.0318201635273787e-01  8.7242337245191193e-01  7.7400333326255344e-01  6.7560108349685499e-01  6.4182580594399685e-01  6.9190951043886117e-01  7.8051059946137380e-01  8.3187714521316081e-01  8.7925985855870115e-01  8.5682535111508529e-01  7.6938275322168015e-01  6.6868198453471239e-01  6.2829139354563868e-01  6.7821595195678952e-01  7.6882972258095883e-01  8.1792433881598303e-01  </DataArray> 
</PointData> 
</Piece>
</UnstructuredGrid>
</VTKFile>