<?xml version="1.0"?>
<VTKFile type="UnstructuredGrid"  version="0.1"  >
<UnstructuredGrid>
<Piece  NumberOfPoints="72" NumberOfCells="112">
<Points>
<DataArray  type="Float64"  NumberOfComponents="3"  format="ascii">0 0 0  1 0 0  2 0 0  3 0 0  4 0 0  5 0 0  6 0 0  7 0 0  0 1 0  1 1 0  2 1 0  3 1 0  4 1 0  5 1 0  6 1 0  7 1 0  0 2 0  1 2 0  2 2 0  3 2 0  4 2 0  5 2 0  6 2 0  7 2 0  0 3 0  1 3 0  2 3 0  3 3 0  4 3 0  5 3 0  6 3 0  7 3 0  0 4 0  1 4 0  2 4 0  3 4 0  4 4 0  5 4 0  6 4 0  7 4 0  0 5 0  1 5 0  2 5 0  3 5 0  4 5 0  5 5 0  6 5 0  7 5 0  0 6 0  1 6 0  2 6 0  3 6 0  4 6 0  5 6 0  6 6 0  7 6 0  0 7 0  1 7 0  2 7 0  3 7 0  4 7 0  5 7 0  6 7 0  7 7 0  0 8 0  1 8 0  2 8 0  3 8 0  4 8 0  5 8 0  6 8 0  7 8 0  </DataArray>
</Points>
<Cells>
<DataArray  type="UInt32"  Name="connectivity"  format="ascii">0 8 9  0 1 9  1 9 10  1 2 10  2 10 11  2 3 11  3 11 12  3 4 12  4 12 13  4 5 13  5 13 14  5 6 14  6 14 15  6 7 15  8 16 17  8 9 17  9 17 18  9 10 18  10 18 19  10 11 19  11 19 20  11 12 20  12 20 21  12 13 21  13 21 22  13 14 22  14 22 23  14 15 23  16 24 25  16 17 25  17 25 26  17 18 26  18 26 27  18 19 27  19 27 28  19 20 28  20 28 29  20 21 29  21 29 30  21 22 30  22 30 31  22 23 31  24 32 33  24 25 33  25 33 34  25 26 34  26 34 35  26 27 35  27 35 36  27 28 36  28 36 37  28 29 37  29 37 38  29 30 38  30 38 39  30 31 39  32 40 41  32 33 41  33 41 42  33 34 42  34 42 43  34 35 43  35 43 44  35 36 44  36 44 45  36 37 45  37 45 46  37 38 46  38 46 47  38 39 47  40 48 49  40 41 49  41 49 50  41 42 50  42 50 51  42 43 51  43 51 52  43 44 52  44 52 53  44 45 53  45 53 54  45 46 54  46 54 55  46 47 55  48 56 57  48 49 57  49 57 58  49 50 58  50 58 59  50 51 59  51 59 60  51 52 60  52 60 61  52 53 61  53 61 62  53 54 62  54 62 63  54 55 63  56 64 65  56 57 65  57 65 66  57 58 66  58 66 67  58 59 67  59 67 68  59 60 68  60 68 69  60 61 69  61 69 70  61 62 70  62 70 71  62 63 71  </DataArray>
<DataArray  type="UInt32"  Name="offsets"  format="ascii">3 6 9 12 15 18 21 24 27 30 33 36 39 42 45 48 51 54 57 60 63 66 69 72 75 78 81 84 87 90 93 96 99 102 105 108 111 114 117 120 123 126 129 132 135 138 141 144 147 150 153 156 159 162 165 168 171 174 177 180 183 186 189 192 195 198 201 204 207 210 213 216 219 222 225 228 231 234 237 240 243 246 249 252 255 258 261 264 267 270 273 276 279 282 285 288 291 294 297 300 303 306 309 312 315 318 321 324 327 330 333 336 </DataArray>
<DataArray  type="UInt8"  Name="types"  format="ascii">5 5 5 5 5 5 5 5 5 5 5 5 5 5 5 5 5 5 5 5 5 5 5 5 5 5 5 5 5 5 5 5 5 5 5 5 5 5 5 5 5 5 5 5 5 5 5 5 5 5 5 5 5 5 5 5 5 5 5 5 5 5 5 5 5 5 5 5 5 5 5 5 5 5 5 5 5 5 5 5 5 5 5 5 5 5 5 5 5 5 5 5 5 5 5 5 5 5 5 5 5 5 5 5 5 5 5 5 5 5 5 5 </DataArray>
</Cells>
<PointData  Scalars="ControlVisualization"> 
<DataArray  type="Float64"  Name="ControlVisualization"  format="ascii">1.0979046754480186e+00  1.0564592097611827e+00  8.6248049514694058e-01  6.3347989341159017e-01  7.2700027293123137e-01  9.3299642415524597e-01  9.8111440712633580e-01  9.9221641762966950e-01  1.0333444898273534e+00  1.0603892184546821e+00  9.7667113979371778e-01  7.9175531324536585e-01  7.8908565261115238e-01  9.3773562922260234e-01  9.8038637102309767e-01  9.7089321679412266e-01  9.1028571567498195e-01  9.9948822335864107e-01  1.1781239527653189e+00  1.1734294858936036e+00  1.0760157648340005e+00  1.0039980700367732e+00  9.5304809204262464e-01  9.3096938498162263e-01  9.8227202705855954e-01  9.9447172179843224e-01  1.2867775343062855e+00  1.5415442526436571e+00  1.4762564455319802e+00  1.2162596487114670e+00  1.0033025917581742e+00  9.2659402146637648e-01  1.0639114412334014e+00  1.0337625381440074e+00  1.1737117566756596e+00  1.4767068305389324e+00  1.5331473622959566e+00  1.3201756065927963e+00  1.1055548452338024e+00  1.0225830921014276e+00  1.0388879423654074e+00  1.0113347396264789e+00  9.7594082448941566e-01  1.0925088368303213e+00  1.1830536470558970e+00  1.1287690763494815e+00  1.0584677983198554e+00  1.0452937306026373e+00  9.7573241726029247e-01  9.4979209437015144e-01  8.5663556476259295e-01  7.9783138415697885e-01  8.0803150597106799e-01  8.5099099432805780e-01  9.1069931290283479e-01  9.5445320280682944e-01  9.4944321328125947e-01  9.1574490971610067e-01  8.1919885002050263e-01  7.1753843884907431e-01  6.7946108559714402e-01  7.3412478437300133e-01  8.3503450263506585e-01  8.9550053967352816e-01  9.6488374819115119e-01  9.1810585149181345e-01  8.1308382449918981e-01  7.0116032069382972e-01  6.5879404710264122e-01  7.1886260647485967e-01  8.3294094331950619e-01  9.1124109705884393e-01  </DataArray> 
</PointData> 
</Piece>
</UnstructuredGrid>
</VTKFile>