<?xml version="1.0"?>
<VTKFile type="UnstructuredGrid"  version="0.1"  >
<UnstructuredGrid>
<Piece  NumberOfPoints="72" NumberOfCells="112">
<Points>
<DataArray  type="Float64"  NumberOfComponents="3"  format="ascii">0 0 0  1 0 0  2 0 0  3 0 0  4 0 0  5 0 0  6 0 0  7 0 0  0 1 0  1 1 0  2 1 0  3 1 0  4 1 0  5 1 0  6 1 0  7 1 0  0 2 0  1 2 0  2 2 0  3 2 0  4 2 0  5 2 0  6 2 0  7 2 0  0 3 0  1 3 0  2 3 0  3 3 0  4 3 0  5 3 0  6 3 0  7 3 0  0 4 0  1 4 0  2 4 0  3 4 0  4 4 0  5 4 0  6 4 0  7 4 0  0 5 0  1 5 0  2 5 0  3 5 0  4 5 0  5 5 0  6 5 0  7 5 0  0 6 0  1 6 0  2 6 0  3 6 0  4 6 0  5 6 0  6 6 0  7 6 0  0 7 0  1 7 0  2 7 0  3 7 0  4 7 0  5 7 0  6 7 0  7 7 0  0 8 0  1 8 0  2 8 0  3 8 0  4 8 0  5 8 0  6 8 0  7 8 0  </DataArray>
</Points>
<Cells>
<DataArray  type="UInt32"  Name="connectivity"  format="ascii">0 8 9  0 1 9  1 9 10  1 2 10  2 10 11  2 3 11  3 11 12  3 4 12  4 12 13  4 5 13  5 13 14  5 6 14  6 14 15  6 7 15  8 16 17  8 9 17  9 17 18  9 10 18  10 18 19  10 11 19  11 19 20  11 12 20  12 20 21  12 13 21  13 21 22  13 14 22  14 22 23  14 15 23  16 24 25  16 17 25  17 25 26  17 18 26  18 26 27  18 19 27  19 27 28  19 20 28  20 28 29  20 21 29  21 29 30  21 22 30  22 30 31  22 23 31  24 32 33  24 25 33  25 33 34  25 26 34  26 34 35  26 27 35  27 35 36  27 28 36  28 36 37  28 29 37  29 37 38  29 30 38  30 38 39  30 31 39  32 40 41  32 33 41  33 41 42  33 34 42  34 42 43  34 35 43  35 43 44  35 36 44  36 44 45  36 37 45  37 45 46  37 38 46  38 46 47  38 39 47  40 48 49  40 41 49  41 49 50  41 42 50  42 50 51  42 43 51  43 51 52  43 44 52  44 52 53  44 45 53  45 53 54  45 46 54  46 54 55  46 47 55  48 56 57  48 49 57  49 57 58  49 50 58  50 58 59  50 51 59  51 59 60  51 52 60  52 60 61  52 53 61  53 61 62  53 54 62  54 62 63  54 55 63  56 64 65  56 57 65  57 65 66  57 58 66  58 66 67  58 59 67  59 67 68  59 60 68  60 68 69  60 61 69  61 69 70  61 62 70  62 70 71  62 63 71  </DataArray>
<DataArray  type="UInt32"  Name="offsets"  format="ascii">3 6 9 12 15 18 21 24 27 30 33 36 39 42 45 48 51 54 57 60 63 66 69 72 75 78 81 84 87 90 93 96 99 102 105 108 111 114 117 120 123 126 129 132 135 138 141 144 147 150 153 156 159 162 165 168 171 174 177 180 183 186 189 192 195 198 201 204 207 210 213 216 219 222 225 228 231 234 237 240 243 246 249 252 255 258 261 264 267 270 273 276 279 282 285 288 291 294 297 300 303 306 309 312 315 318 321 324 327 330 333 336 </DataArray>
<DataArray  type="UInt8"  Name="types"  format="ascii">5 5 5 5 5 5 5 5 5 5 5 5 5 5 5 5 5 5 5 5 5 5 5 5 5 5 5 5 5 5 5 5 5 5 5 5 5 5 5 5 5 5 5 5 5 5 5 5 5 5 5 5 5 5 5 5 5 5 5 5 5 5 5 5 5 5 5 5 5 5 5 5 5 5 5 5 5 5 5 5 5 5 5 5 5 5 5 5 5 5 5 5 5 5 5 5 5 5 5 5 5 5 5 5 5 5 5 5 5 5 5 5 </DataArray>
</Cells>
<PointData  Scalars="ControlVisualization"> 
<DataArray  type="Float64"  Name="ControlVisualization"  format="ascii">1.1325078553589061e+00  1.0779766975054050e+00  8.6532493595558835e-01  6.2432852755945345e-01  7.1640056277458419e-01  9.2800026126010560e-01  9.7601661688979824e-01  9.7571953326374716e-01  1.0442412717916834e+00  1.0684559338609998e+00  9.7524828077746628e-01  7.6669588491506580e-01  7.5671818334640217e-01  9.2425111457500309e-01  9.7781349584703015e-01  9.6750149930908091e-01  9.1420919618204588e-01  1.0058109672495514e+00  1.1796590493254915e+00  1.1550338660476480e+00  1.0527461328595509e+00  9.9796824972376652e-01  9.5267872479503013e-01  9.2261227862458928e-01  9.8262474307973158e-01  1.0008873290735707e+00  1.2859238826473816e+00  1.5235776771608722e+00  1.4563078103402307e+00  1.2073577692644446e+00  9.9808792952866254e-01  9.2487858766126241e-01  1.0740795515165780e+00  1.0371229120279688e+00  1.1651153579416245e+00  1.4550975532968522e+00  1.5115872053903883e+00  1.3091226744499798e+00  1.1010194732096452e+00  1.0321746433644037e+00  1.0576096109782784e+00  1.0148119862427039e+00  9.6883650055300352e-01  1.0754286222538336e+00  1.1668097160003774e+00  1.1230518018520752e+00  1.0593331555144714e+00  1.0561754626329840e+00  9.8812901879257065e-01  9.5314477052074409e-01  8.5279057048746398e-01  7.9064056786451398e-01  8.0048553601344585e-01  8.4647623928247129e-01  9.0823379149886552e-01  9.5504815336916182e-01  9.4091681723888576e-01  9.0576111846134211e-01  8.0410422790857961e-01  7.0131834182903130e-01  6.6549277433724796e-01  7.1940006361586273e-01  8.1568367129656383e-01  8.7341861824557865e-01  9.2861690661946372e-01  8.8875032641341767e-01  7.9054471711348917e-01  6.8664676029885885e-01  6.4623211149831483e-01  6.9918296036579486e-01  8.0046903907082911e-01  8.6278789720501925e-01  </DataArray> 
</PointData> 
</Piece>
</UnstructuredGrid>
</VTKFile>