<?xml version="1.0"?>
<VTKFile type="UnstructuredGrid"  version="0.1"  >
<UnstructuredGrid>
<Piece  NumberOfPoints="72" NumberOfCells="112">
<Points>
<DataArray  type="Float64"  NumberOfComponents="3"  format="ascii">0 0 0  1 0 0  2 0 0  3 0 0  4 0 0  5 0 0  6 0 0  7 0 0  0 1 0  1 1 0  2 1 0  3 1 0  4 1 0  5 1 0  6 1 0  7 1 0  0 2 0  1 2 0  2 2 0  3 2 0  4 2 0  5 2 0  6 2 0  7 2 0  0 3 0  1 3 0  2 3 0  3 3 0  4 3 0  5 3 0  6 3 0  7 3 0  0 4 0  1 4 0  2 4 0  3 4 0  4 4 0  5 4 0  6 4 0  7 4 0  0 5 0  1 5 0  2 5 0  3 5 0  4 5 0  5 5 0  6 5 0  7 5 0  0 6 0  1 6 0  2 6 0  3 6 0  4 6 0  5 6 0  6 6 0  7 6 0  0 7 0  1 7 0  2 7 0  3 7 0  4 7 0  5 7 0  6 7 0  7 7 0  0 8 0  1 8 0  2 8 0  3 8 0  4 8 0  5 8 0  6 8 0  7 8 0  </DataArray>
</Points>
<Cells>
<DataArray  type="UInt32"  Name="connectivity"  format="ascii">0 8 9  0 1 9  1 9 10  1 2 10  2 10 11  2 3 11  3 11 12  3 4 12  4 12 13  4 5 13  5 13 14  5 6 14  6 14 15  6 7 15  8 16 17  8 9 17  9 17 18  9 10 18  10 18 19  10 11 19  11 19 20  11 12 20  12 20 21  12 13 21  13 21 22  13 14 22  14 22 23  14 15 23  16 24 25  16 17 25  17 25 26  17 18 26  18 26 27  18 19 27  19 27 28  19 20 28  20 28 29  20 21 29  21 29 30  21 22 30  22 30 31  22 23 31  24 32 33  24 25 33  25 33 34  25 26 34  26 34 35  26 27 35  27 35 36  27 28 36  28 36 37  28 29 37  29 37 38  29 30 38  30 38 39  30 31 39  32 40 41  32 33 41  33 41 42  33 34 42  34 42 43  34 35 43  35 43 44  35 36 44  36 44 45  36 37 45  37 45 46  37 38 46  38 46 47  38 39 47  40 48 49  40 41 49  41 49 50  41 42 50  42 50 51  42 43 51  43 51 52  43 44 52  44 52 53  44 45 53  45 53 54  45 46 54  46 54 55  46 47 55  48 56 57  48 49 57  49 57 58  49 50 58  50 58 59  50 51 59  51 59 60  51 52 60  52 60 61  52 53 61  53 61 62  53 54 62  54 62 63  54 55 63  56 64 65  56 57 65  57 65 66  57 58 66  58 66 67  58 59 67  59 67 68  59 60 68  60 68 69  60 61 69  61 69 70  61 62 70  62 70 71  62 63 71  </DataArray>
<DataArray  type="UInt32"  Name="offsets"  format="ascii">3 6 9 12 15 18 21 24 27 30 33 36 39 42 45 48 51 54 57 60 63 66 69 72 75 78 81 84 87 90 93 96 99 102 105 108 111 114 117 120 123 126 129 132 135 138 141 144 147 150 153 156 159 162 165 168 171 174 177 180 183 186 189 192 195 198 201 204 207 210 213 216 219 222 225 228 231 234 237 240 243 246 249 252 255 258 261 264 267 270 273 276 279 282 285 288 291 294 297 300 303 306 309 312 315 318 321 324 327 330 333 336 </DataArray>
<DataArray  type="UInt8"  Name="types"  format="ascii">5 5 5 5 5 5 5 5 5 5 5 5 5 5 5 5 5 5 5 5 5 5 5 5 5 5 5 5 5 5 5 5 5 5 5 5 5 5 5 5 5 5 5 5 5 5 5 5 5 5 5 5 5 5 5 5 5 5 5 5 5 5 5 5 5 5 5 5 5 5 5 5 5 5 5 5 5 5 5 5 5 5 5 5 5 5 5 5 5 5 5 5 5 5 5 5 5 5 5 5 5 5 5 5 5 5 5 5 5 5 5 5 </DataArray>
</Cells>
<PointData  Scalars="ControlVisualization"> 
<DataArray  type="Float64"  Name="ControlVisualization"  format="ascii">1.1517140577111888e+00  1.0656307550938364e+00  8.2292196687731445e-01  5.5175968779724194e-01  6.2362978366373889e-01  8.2283495853190392e-01  8.8177137329957112e-01  8.9310283709929494e-01  1.0487730726438012e+00  1.0510320246783769e+00  9.2621774358032682e-01  6.9524398133270515e-01  6.6888321946509710e-01  8.3002296488523308e-01  9.0063962536591924e-01  9.0385459233999110e-01  8.9155390135872270e-01  9.6792254922704302e-01  1.1237386791088866e+00  1.0850580683033229e+00  9.6915731717531917e-01  9.1159367674109903e-01  8.9544557075275610e-01  8.9175839982198268e-01  9.5570682837943066e-01  9.5709241567780989e-01  1.2331826361527320e+00  1.4675495600711321e+00  1.3900846891721872e+00  1.1333877518398483e+00  9.4215465202703841e-01  8.8605398824756310e-01  1.0422829894692323e+00  1.0006961114042361e+00  1.1218777476900705e+00  1.4103129864531729e+00  1.4581585668208041e+00  1.2448069329541387e+00  1.0422492017569411e+00  9.7730295694484082e-01  1.0259743505358148e+00  9.8250044872960840e-01  9.3075378950382748e-01  1.0360189319235864e+00  1.1206699550548886e+00  1.0653734719173371e+00  1.0026669816225529e+00  1.0002687168859046e+00  9.5799612595503303e-01  9.2039414733679015e-01  8.1625796043130427e-01  7.5503917249221730e-01  7.6312154929962472e-01  8.0112033279395800e-01  8.6050866927345859e-01  9.0790802914717883e-01  9.0377735986761421e-01  8.7284333736457353e-01  7.7426731252223280e-01  6.7576701011844531e-01  6.4189522769660678e-01  6.9193111879059754e-01  7.8035392063402798e-01  8.3147205336769614e-01  8.7995784578430558e-01  8.5702471788703538e-01  7.6926355532522572e-01  6.6857411603418226e-01  6.2838730627329931e-01  6.7833659181159045e-01  7.6857079647216331e-01  8.1694450870581536e-01  </DataArray> 
</PointData> 
</Piece>
</UnstructuredGrid>
</VTKFile>