<?xml version="1.0"?>
<VTKFile type="UnstructuredGrid"  version="0.1"  >
<UnstructuredGrid>
<Piece  NumberOfPoints="72" NumberOfCells="112">
<Points>
<DataArray  type="Float64"  NumberOfComponents="3"  format="ascii">0 0 0  1 0 0  2 0 0  3 0 0  4 0 0  5 0 0  6 0 0  7 0 0  0 1 0  1 1 0  2 1 0  3 1 0  4 1 0  5 1 0  6 1 0  7 1 0  0 2 0  1 2 0  2 2 0  3 2 0  4 2 0  5 2 0  6 2 0  7 2 0  0 3 0  1 3 0  2 3 0  3 3 0  4 3 0  5 3 0  6 3 0  7 3 0  0 4 0  1 4 0  2 4 0  3 4 0  4 4 0  5 4 0  6 4 0  7 4 0  0 5 0  1 5 0  2 5 0  3 5 0  4 5 0  5 5 0  6 5 0  7 5 0  0 6 0  1 6 0  2 6 0  3 6 0  4 6 0  5 6 0  6 6 0  7 6 0  0 7 0  1 7 0  2 7 0  3 7 0  4 7 0  5 7 0  6 7 0  7 7 0  0 8 0  1 8 0  2 8 0  3 8 0  4 8 0  5 8 0  6 8 0  7 8 0  </DataArray>
</Points>
<Cells>
<DataArray  type="UInt32"  Name="connectivity"  format="ascii">0 8 9  0 1 9  1 9 10  1 2 10  2 10 11  2 3 11  3 11 12  3 4 12  4 12 13  4 5 13  5 13 14  5 6 14  6 14 15  6 7 15  8 16 17  8 9 17  9 17 18  9 10 18  10 18 19  10 11 19  11 19 20  11 12 20  12 20 21  12 13 21  13 21 22  13 14 22  14 22 23  14 15 23  16 24 25  16 17 25  17 25 26  17 18 26  18 26 27  18 19 27  19 27 28  19 20 28  20 28 29  20 21 29  21 29 30  21 22 30  22 30 31  22 23 31  24 32 33  24 25 33  25 33 34  25 26 34  26 34 35  26 27 35  27 35 36  27 28 36  28 36 37  28 29 37  29 37 38  29 30 38  30 38 39  30 31 39  32 40 41  32 33 41  33 41 42  33 34 42  34 42 43  34 35 43  35 43 44  35 36 44  36 44 45  36 37 45  37 45 46  37 38 46  38 46 47  38 39 47  40 48 49  40 41 49  41 49 50  41 42 50  42 50 51  42 43 51  43 51 52  43 44 52  44 52 53  44 45 53  45 53 54  45 46 54  46 54 55  46 47 55  48 56 57  48 49 57  49 57 58  49 50 58  50 58 59  50 51 59  51 59 60  51 52 60  52 60 61  52 53 61  53 61 62  53 54 62  54 62 63  54 55 63  56 64 65  56 57 65  57 65 66  57 58 66  58 66 67  58 59 67  59 67 68  59 60 68  60 68 69  60 61 69  61 69 70  61 62 70  62 70 71  62 63 71  </DataArray>
<DataArray  type="UInt32"  Name="offsets"  format="ascii">3 6 9 12 15 18 21 24 27 30 33 36 39 42 45 48 51 54 57 60 63 66 69 72 75 78 81 84 87 90 93 96 99 102 105 108 111 114 117 120 123 126 129 132 135 138 141 144 147 150 153 156 159 162 165 168 171 174 177 180 183 186 189 192 195 198 201 204 207 210 213 216 219 222 225 228 231 234 237 240 243 246 249 252 255 258 261 264 267 270 273 276 279 282 285 288 291 294 297 300 303 306 309 312 315 318 321 324 327 330 333 336 </DataArray>
<DataArray  type="UInt8"  Name="types"  format="ascii">5 5 5 5 5 5 5 5 5 5 5 5 5 5 5 5 5 5 5 5 5 5 5 5 5 5 5 5 5 5 5 5 5 5 5 5 5 5 5 5 5 5 5 5 5 5 5 5 5 5 5 5 5 5 5 5 5 5 5 5 5 5 5 5 5 5 5 5 5 5 5 5 5 5 5 5 5 5 5 5 5 5 5 5 5 5 5 5 5 5 5 5 5 5 5 5 5 5 5 5 5 5 5 5 5 5 5 5 5 5 5 5 </DataArray>
</Cells>
<PointData  Scalars="ControlVisualization"> 
<DataArray  type="Float64"  Name="ControlVisualization"  format="ascii">1.1494848779800930e+00  1.0748309979642243e+00  8.3349568212676217e-01  5.6326139887311422e-01  6.3611487333726036e-01  8.4158439640223814e-01  9.0768128218806265e-01  9.3239849409730080e-01  1.0542026855652358e+00  1.0578544774977732e+00  9.4006643284880509e-01  7.0928722331294403e-01  6.8275993399381385e-01  8.4580962953255123e-01  9.1824976583257090e-01  9.2472775267993323e-01  9.0615945376000318e-01  9.7712183545378173e-01  1.1369122657639816e+00  1.0998072691945993e+00  9.8376914561225381e-01  9.2488313542857836e-01  9.0578038512925940e-01  9.0274198576544373e-01  9.6841068201225122e-01  9.6626525594737278e-01  1.2422087587080741e+00  1.4784129953841061e+00  1.4017308561977528e+00  1.1439271608281778e+00  9.5132495101736525e-01  8.9888776895007172e-01  1.0514258095666997e+00  1.0051815110324722e+00  1.1259822554899110e+00  1.4182631720232870e+00  1.4684987406444661e+00  1.2543016348982887e+00  1.0499443746170172e+00  9.8588704009347616e-01  1.0261640468405073e+00  9.8328598155194324e-01  9.3345734381841250e-01  1.0436687551057913e+00  1.1318669413691653e+00  1.0755051977339878e+00  1.0086974591963007e+00  1.0023883416584327e+00  9.4875416443190186e-01  9.1881363120794601e-01  8.2139489189423287e-01  7.6436381188537905e-01  7.7440703394192811e-01  8.1021129386127655e-01  8.6350648506410443e-01  9.0436904116156647e-01  8.9285685540013138e-01  8.7048935750764400e-01  7.7907351978468109e-01  6.8312316803860573e-01  6.4935077624627235e-01  6.9761543127718839e-01  7.8254292407351067e-01  8.3083729406504603e-01  8.6899509456090807e-01  8.5457131547540910e-01  7.7438006359007983e-01  6.7575232952847786e-01  6.3465310347802684e-01  6.8293387484642543e-01  7.7179902684568935e-01  8.2143371094187601e-01  </DataArray> 
</PointData> 
</Piece>
</UnstructuredGrid>
</VTKFile>