<?xml version="1.0"?>
<VTKFile type="UnstructuredGrid"  version="0.1"  >
<UnstructuredGrid>
<Piece  NumberOfPoints="72" NumberOfCells="112">
<Points>
<DataArray  type="Float64"  NumberOfComponents="3"  format="ascii">0 0 0  1 0 0  2 0 0  3 0 0  4 0 0  5 0 0  6 0 0  7 0 0  0 1 0  1 1 0  2 1 0  3 1 0  4 1 0  5 1 0  6 1 0  7 1 0  0 2 0  1 2 0  2 2 0  3 2 0  4 2 0  5 2 0  6 2 0  7 2 0  0 3 0  1 3 0  2 3 0  3 3 0  4 3 0  5 3 0  6 3 0  7 3 0  0 4 0  1 4 0  2 4 0  3 4 0  4 4 0  5 4 0  6 4 0  7 4 0  0 5 0  1 5 0  2 5 0  3 5 0  4 5 0  5 5 0  6 5 0  7 5 0  0 6 0  1 6 0  2 6 0  3 6 0  4 6 0  5 6 0  6 6 0  7 6 0  0 7 0  1 7 0  2 7 0  3 7 0  4 7 0  5 7 0  6 7 0  7 7 0  0 8 0  1 8 0  2 8 0  3 8 0  4 8 0  5 8 0  6 8 0  7 8 0  </DataArray>
</Points>
<Cells>
<DataArray  type="UInt32"  Name="connectivity"  format="ascii">0 8 9  0 1 9  1 9 10  1 2 10  2 10 11  2 3 11  3 11 12  3 4 12  4 12 13  4 5 13  5 13 14  5 6 14  6 14 15  6 7 15  8 16 17  8 9 17  9 17 18  9 10 18  10 18 19  10 11 19  11 19 20  11 12 20  12 20 21  12 13 21  13 21 22  13 14 22  14 22 23  14 15 23  16 24 25  16 17 25  17 25 26  17 18 26  18 26 27  18 19 27  19 27 28  19 20 28  20 28 29  20 21 29  21 29 30  21 22 30  22 30 31  22 23 31  24 32 33  24 25 33  25 33 34  25 26 34  26 34 35  26 27 35  27 35 36  27 28 36  28 36 37  28 29 37  29 37 38  29 30 38  30 38 39  30 31 39  32 40 41  32 33 41  33 41 42  33 34 42  34 42 43  34 35 43  35 43 44  35 36 44  36 44 45  36 37 45  37 45 46  37 38 46  38 46 47  38 39 47  40 48 49  40 41 49  41 49 50  41 42 50  42 50 51  42 43 51  43 51 52  43 44 52  44 52 53  44 45 53  45 53 54  45 46 54  46 54 55  46 47 55  48 56 57  48 49 57  49 57 58  49 50 58  50 58 59  50 51 59  51 59 60  51 52 60  52 60 61  52 53 61  53 61 62  53 54 62  54 62 63  54 55 63  56 64 65  56 57 65  57 65 66  57 58 66  58 66 67  58 59 67  59 67 68  59 60 68  60 68 69  60 61 69  61 69 70  61 62 70  62 70 71  62 63 71  </DataArray>
<DataArray  type="UInt32"  Name="offsets"  format="ascii">3 6 9 12 15 18 21 24 27 30 33 36 39 42 45 48 51 54 57 60 63 66 69 72 75 78 81 84 87 90 93 96 99 102 105 108 111 114 117 120 123 126 129 132 135 138 141 144 147 150 153 156 159 162 165 168 171 174 177 180 183 186 189 192 195 198 201 204 207 210 213 216 219 222 225 228 231 234 237 240 243 246 249 252 255 258 261 264 267 270 273 276 279 282 285 288 291 294 297 300 303 306 309 312 315 318 321 324 327 330 333 336 </DataArray>
<DataArray  type="UInt8"  Name="types"  format="ascii">5 5 5 5 5 5 5 5 5 5 5 5 5 5 5 5 5 5 5 5 5 5 5 5 5 5 5 5 5 5 5 5 5 5 5 5 5 5 5 5 5 5 5 5 5 5 5 5 5 5 5 5 5 5 5 5 5 5 5 5 5 5 5 5 5 5 5 5 5 5 5 5 5 5 5 5 5 5 5 5 5 5 5 5 5 5 5 5 5 5 5 5 5 5 5 5 5 5 5 5 5 5 5 5 5 5 5 5 5 5 5 5 </DataArray>
</Cells>
<PointData  Scalars="ControlVisualization"> 
<DataArray  type="Float64"  Name="ControlVisualization"  format="ascii">1.0516979036638394e+00  1.0205764100172194e+00  8.5503812333851104e-01  6.7653583482491442e-01  7.6315010359552748e-01  9.4182882547080604e-01  9.9672798370019022e-01  1.0014572979786127e+00  1.0250776005344648e+00  1.0403439284955396e+00  9.6937369916945326e-01  7.8263790485126672e-01  7.6076028729220890e-01  9.0753873879554137e-01  9.7967905329896698e-01  9.9119274456630968e-01  9.2884991021283281e-01  9.9057617058643777e-01  1.1795530284684772e+00  1.1859144284146266e+00  1.0815728860408500e+00  1.0040223931812902e+00  9.6365687648184550e-01  9.4951090758686207e-01  9.7745583097616529e-01  9.8707063192245681e-01  1.2889979337379596e+00  1.5715692316931318e+00  1.5166555530282630e+00  1.2358275206542526e+00  1.0057737161346623e+00  9.3817257150152589e-01  1.0255525871931246e+00  1.0136941233901560e+00  1.1652107436648322e+00  1.4982793512826889e+00  1.5720488447921683e+00  1.3375019116147828e+00  1.0866165677209498e+00  9.9862858965201984e-01  1.0083624506238895e+00  9.9143243865160191e-01  9.6356318608567881e-01  1.1000500257280443e+00  1.2071427106992549e+00  1.1431210853291129e+00  1.0385423554531794e+00  1.0064807292538345e+00  9.7522013371484884e-01  9.4378194392539161e-01  8.4307952890951143e-01  7.8910557095176581e-01  8.1062765840418838e-01  8.6000226345007369e-01  9.1096126881565365e-01  9.5089197932730818e-01  9.6630044511594593e-01  9.2639879531084912e-01  8.2195846786424653e-01  7.1521874022537801e-01  6.8202558878393049e-01  7.4676316643076102e-01  8.5327686067573183e-01  9.2433674432569723e-01  9.9094215943510300e-01  9.5820656046542796e-01  8.8622548610439966e-01  7.8929630856580613e-01  7.3893497582562429e-01  7.8198638256899577e-01  8.7825140655838718e-01  9.5161002227784652e-01  </DataArray> 
</PointData> 
</Piece>
</UnstructuredGrid>
</VTKFile>