<?xml version="1.0"?>
<VTKFile type="UnstructuredGrid"  version="0.1"  >
<UnstructuredGrid>
<Piece  NumberOfPoints="72" NumberOfCells="112">
<Points>
<DataArray  type="Float64"  NumberOfComponents="3"  format="ascii">0 0 0  1 0 0  2 0 0  3 0 0  4 0 0  5 0 0  6 0 0  7 0 0  0 1 0  1 1 0  2 1 0  3 1 0  4 1 0  5 1 0  6 1 0  7 1 0  0 2 0  1 2 0  2 2 0  3 2 0  4 2 0  5 2 0  6 2 0  7 2 0  0 3 0  1 3 0  2 3 0  3 3 0  4 3 0  5 3 0  6 3 0  7 3 0  0 4 0  1 4 0  2 4 0  3 4 0  4 4 0  5 4 0  6 4 0  7 4 0  0 5 0  1 5 0  2 5 0  3 5 0  4 5 0  5 5 0  6 5 0  7 5 0  0 6 0  1 6 0  2 6 0  3 6 0  4 6 0  5 6 0  6 6 0  7 6 0  0 7 0  1 7 0  2 7 0  3 7 0  4 7 0  5 7 0  6 7 0  7 7 0  0 8 0  1 8 0  2 8 0  3 8 0  4 8 0  5 8 0  6 8 0  7 8 0  </DataArray>
</Points>
<Cells>
<DataArray  type="UInt32"  Name="connectivity"  format="ascii">0 8 9  0 1 9  1 9 10  1 2 10  2 10 11  2 3 11  3 11 12  3 4 12  4 12 13  4 5 13  5 13 14  5 6 14  6 14 15  6 7 15  8 16 17  8 9 17  9 17 18  9 10 18  10 18 19  10 11 19  11 19 20  11 12 20  12 20 21  12 13 21  13 21 22  13 14 22  14 22 23  14 15 23  16 24 25  16 17 25  17 25 26  17 18 26  18 26 27  18 19 27  19 27 28  19 20 28  20 28 29  20 21 29  21 29 30  21 22 30  22 30 31  22 23 31  24 32 33  24 25 33  25 33 34  25 26 34  26 34 35  26 27 35  27 35 36  27 28 36  28 36 37  28 29 37  29 37 38  29 30 38  30 38 39  30 31 39  32 40 41  32 33 41  33 41 42  33 34 42  34 42 43  34 35 43  35 43 44  35 36 44  36 44 45  36 37 45  37 45 46  37 38 46  38 46 47  38 39 47  40 48 49  40 41 49  41 49 50  41 42 50  42 50 51  42 43 51  43 51 52  43 44 52  44 52 53  44 45 53  45 53 54  45 46 54  46 54 55  46 47 55  48 56 57  48 49 57  49 57 58  49 50 58  50 58 59  50 51 59  51 59 60  51 52 60  52 60 61  52 53 61  53 61 62  53 54 62  54 62 63  54 55 63  56 64 65  56 57 65  57 65 66  57 58 66  58 66 67  58 59 67  59 67 68  59 60 68  60 68 69  60 61 69  61 69 70  61 62 70  62 70 71  62 63 71  </DataArray>
<DataArray  type="UInt32"  Name="offsets"  format="ascii">3 6 9 12 15 18 21 24 27 30 33 36 39 42 45 48 51 54 57 60 63 66 69 72 75 78 81 84 87 90 93 96 99 102 105 108 111 114 117 120 123 126 129 132 135 138 141 144 147 150 153 156 159 162 165 168 171 174 177 180 183 186 189 192 195 198 201 204 207 210 213 216 219 222 225 228 231 234 237 240 243 246 249 252 255 258 261 264 267 270 273 276 279 282 285 288 291 294 297 300 303 306 309 312 315 318 321 324 327 330 333 336 </DataArray>
<DataArray  type="UInt8"  Name="types"  format="ascii">5 5 5 5 5 5 5 5 5 5 5 5 5 5 5 5 5 5 5 5 5 5 5 5 5 5 5 5 5 5 5 5 5 5 5 5 5 5 5 5 5 5 5 5 5 5 5 5 5 5 5 5 5 5 5 5 5 5 5 5 5 5 5 5 5 5 5 5 5 5 5 5 5 5 5 5 5 5 5 5 5 5 5 5 5 5 5 5 5 5 5 5 5 5 5 5 5 5 5 5 5 5 5 5 5 5 5 5 5 5 5 5 </DataArray>
</Cells>
<PointData  Scalars="ControlVisualization"> 
<DataArray  type="Float64"  Name="ControlVisualization"  format="ascii">1.1270092793650970e+00  1.0666648246881740e+00  8.6117296621492689e-01  6.2570137573499773e-01  7.2333041293198286e-01  9.3446632379663763e-01  9.7938375778165299e-01  9.7911046070880148e-01  1.0499464359071857e+00  1.0619930510291722e+00  9.6699289911871122e-01  7.6954521410992061e-01  7.6497161191127450e-01  9.3475080436211222e-01  9.8210461446888742e-01  9.6711477763419895e-01  9.2134129984599211e-01  1.0144576831159398e+00  1.1729720276231674e+00  1.1543520857983980e+00  1.0571408624135175e+00  1.0030612775656527e+00  9.4957053506581324e-01  9.1784049307523230e-01  9.8778429118954458e-01  1.0106177551434055e+00  1.2889174775006469e+00  1.5173659971357909e+00  1.4539686180135944e+00  1.2059969866766678e+00  9.9309275601400615e-01  9.2034838313359013e-01  1.0769302422078819e+00  1.0448091154565387e+00  1.1712729524090644e+00  1.4544689081919489e+00  1.5076946164919740e+00  1.3079414905988567e+00  1.0982933325238911e+00  1.0298031475147664e+00  1.0578475334691029e+00  1.0170116410298258e+00  9.7709273818196329e-01  1.0798440252071622e+00  1.1676398969409054e+00  1.1243265302608965e+00  1.0603328663807687e+00  1.0556282440221640e+00  9.8662568083345803e-01  9.5503099672536718e-01  8.5897501077691385e-01  7.9913443000377082e-01  8.0535964380105962e-01  8.4847039373511990e-01  9.1136906787267546e-01  9.5617857615585822e-01  9.4329671866516840e-01  9.1047663925467370e-01  8.0846761863569971e-01  7.0702699031122240e-01  6.7221877051938927e-01  7.2453391667552547e-01  8.2013240424553069e-01  8.7909456423057475e-01  9.3721417034959953e-01  8.9370219261344497e-01  7.9377889971880577e-01  6.8849533012569020e-01  6.4756438021937190e-01  7.0231184680910053e-01  8.0720772692960807e-01  8.7434703216063792e-01  </DataArray> 
</PointData> 
</Piece>
</UnstructuredGrid>
</VTKFile>