<?xml version="1.0"?>
<VTKFile type="UnstructuredGrid"  version="0.1"  >
<UnstructuredGrid>
<Piece  NumberOfPoints="72" NumberOfCells="112">
<Points>
<DataArray  type="Float64"  NumberOfComponents="3"  format="ascii">0 0 0  1 0 0  2 0 0  3 0 0  4 0 0  5 0 0  6 0 0  7 0 0  0 1 0  1 1 0  2 1 0  3 1 0  4 1 0  5 1 0  6 1 0  7 1 0  0 2 0  1 2 0  2 2 0  3 2 0  4 2 0  5 2 0  6 2 0  7 2 0  0 3 0  1 3 0  2 3 0  3 3 0  4 3 0  5 3 0  6 3 0  7 3 0  0 4 0  1 4 0  2 4 0  3 4 0  4 4 0  5 4 0  6 4 0  7 4 0  0 5 0  1 5 0  2 5 0  3 5 0  4 5 0  5 5 0  6 5 0  7 5 0  0 6 0  1 6 0  2 6 0  3 6 0  4 6 0  5 6 0  6 6 0  7 6 0  0 7 0  1 7 0  2 7 0  3 7 0  4 7 0  5 7 0  6 7 0  7 7 0  0 8 0  1 8 0  2 8 0  3 8 0  4 8 0  5 8 0  6 8 0  7 8 0  </DataArray>
</Points>
<Cells>
<DataArray  type="UInt32"  Name="connectivity"  format="ascii">0 8 9  0 1 9  1 9 10  1 2 10  2 10 11  2 3 11  3 11 12  3 4 12  4 12 13  4 5 13  5 13 14  5 6 14  6 14 15  6 7 15  8 16 17  8 9 17  9 17 18  9 10 18  10 18 19  10 11 19  11 19 20  11 12 20  12 20 21  12 13 21  13 21 22  13 14 22  14 22 23  14 15 23  16 24 25  16 17 25  17 25 26  17 18 26  18 26 27  18 19 27  19 27 28  19 20 28  20 28 29  20 21 29  21 29 30  21 22 30  22 30 31  22 23 31  24 32 33  24 25 33  25 33 34  25 26 34  26 34 35  26 27 35  27 35 36  27 28 36  28 36 37  28 29 37  29 37 38  29 30 38  30 38 39  30 31 39  32 40 41  32 33 41  33 41 42  33 34 42  34 42 43  34 35 43  35 43 44  35 36 44  36 44 45  36 37 45  37 45 46  37 38 46  38 46 47  38 39 47  40 48 49  40 41 49  41 49 50  41 42 50  42 50 51  42 43 51  43 51 52  43 44 52  44 52 53  44 45 53  45 53 54  45 46 54  46 54 55  46 47 55  48 56 57  48 49 57  49 57 58  49 50 58  50 58 59  50 51 59  51 59 60  51 52 60  52 60 61  52 53 61  53 61 62  53 54 62  54 62 63  54 55 63  56 64 65  56 57 65  57 65 66  57 58 66  58 66 67  58 59 67  59 67 68  59 60 68  60 68 69  60 61 69  61 69 70  61 62 70  62 70 71  62 63 71  </DataArray>
<DataArray  type="UInt32"  Name="offsets"  format="ascii">3 6 9 12 15 18 21 24 27 30 33 36 39 42 45 48 51 54 57 60 63 66 69 72 75 78 81 84 87 90 93 96 99 102 105 108 111 114 117 120 123 126 129 132 135 138 141 144 147 150 153 156 159 162 165 168 171 174 177 180 183 186 189 192 195 198 201 204 207 210 213 216 219 222 225 228 231 234 237 240 243 246 249 252 255 258 261 264 267 270 273 276 279 282 285 288 291 294 297 300 303 306 309 312 315 318 321 324 327 330 333 336 </DataArray>
<DataArray  type="UInt8"  Name="types"  format="ascii">5 5 5 5 5 5 5 5 5 5 5 5 5 5 5 5 5 5 5 5 5 5 5 5 5 5 5 5 5 5 5 5 5 5 5 5 5 5 5 5 5 5 5 5 5 5 5 5 5 5 5 5 5 5 5 5 5 5 5 5 5 5 5 5 5 5 5 5 5 5 5 5 5 5 5 5 5 5 5 5 5 5 5 5 5 5 5 5 5 5 5 5 5 5 5 5 5 5 5 5 5 5 5 5 5 5 5 5 5 5 5 5 </DataArray>
</Cells>
<PointData  Scalars="ControlVisualization"> 
<DataArray  type="Float64"  Name="ControlVisualization"  format="ascii">1.1535245931138622e+00  1.0738510407877888e+00  8.3077947519840289e-01  5.6276768124280419e-01  6.3619693163581670e-01  8.3815536383638833e-01  9.0201755277623341e-01  9.2086086087965480e-01  1.0519033179012345e+00  1.0566914393046589e+00  9.3717545362106480e-01  7.0413013820285475e-01  6.7640953240953172e-01  8.4085427741604524e-01  9.1519557284156605e-01  9.1999116167612027e-01  9.0289814590133377e-01  9.7500494946916738e-01  1.1336998485173839e+00  1.0932611779087662e+00  9.7813671461218932e-01  9.2365976771658642e-01  9.0462107640609668e-01  8.9659657174981233e-01  9.6539236541448759e-01  9.6522446325153055e-01  1.2404622201399698e+00  1.4734754169235653e+00  1.3975532045698105e+00  1.1428293206925588e+00  9.4847842585620712e-01  8.9450667962222818e-01  1.0504442514810952e+00  1.0048254993852219e+00  1.1255845759608638e+00  1.4143115695367607e+00  1.4639798543395461e+00  1.2523129398603834e+00  1.0482899451668766e+00  9.8683416507672495e-01  1.0288450896568120e+00  9.8366100870710460e-01  9.3306504714657845e-01  1.0401768600886525e+00  1.1269187884095300e+00  1.0728160505309479e+00  1.0089998608962041e+00  1.0063733781029196e+00  9.5543432686563601e-01  9.1993068643810061e-01  8.1975626065457319e-01  7.6150112087882216e-01  7.7010744381326723e-01  8.0711459398687524e-01  8.6463914153422805e-01  9.0998935302399542e-01  8.9781901366508177e-01  8.7022424854739278e-01  7.7605409627874111e-01  6.7943683685144951e-01  6.4514574787488022e-01  6.9410936939497858e-01  7.8187369109804028e-01  8.3275043912034497e-01  8.7028822516693627e-01  8.5319687644299924e-01  7.7145046414251794e-01  6.7257289513325869e-01  6.3092023726825308e-01  6.7891738255671663e-01  7.6912287742907914e-01  8.1849720590919584e-01  </DataArray> 
</PointData> 
</Piece>
</UnstructuredGrid>
</VTKFile>