<?xml version="1.0"?>
<VTKFile type="UnstructuredGrid"  version="0.1"  >
<UnstructuredGrid>
<Piece  NumberOfPoints="72" NumberOfCells="112">
<Points>
<DataArray  type="Float64"  NumberOfComponents="3"  format="ascii">0 0 0  1 0 0  2 0 0  3 0 0  4 0 0  5 0 0  6 0 0  7 0 0  0 1 0  1 1 0  2 1 0  3 1 0  4 1 0  5 1 0  6 1 0  7 1 0  0 2 0  1 2 0  2 2 0  3 2 0  4 2 0  5 2 0  6 2 0  7 2 0  0 3 0  1 3 0  2 3 0  3 3 0  4 3 0  5 3 0  6 3 0  7 3 0  0 4 0  1 4 0  2 4 0  3 4 0  4 4 0  5 4 0  6 4 0  7 4 0  0 5 0  1 5 0  2 5 0  3 5 0  4 5 0  5 5 0  6 5 0  7 5 0  0 6 0  1 6 0  2 6 0  3 6 0  4 6 0  5 6 0  6 6 0  7 6 0  0 7 0  1 7 0  2 7 0  3 7 0  4 7 0  5 7 0  6 7 0  7 7 0  0 8 0  1 8 0  2 8 0  3 8 0  4 8 0  5 8 0  6 8 0  7 8 0  </DataArray>
</Points>
<Cells>
<DataArray  type="UInt32"  Name="connectivity"  format="ascii">0 8 9  0 1 9  1 9 10  1 2 10  2 10 11  2 3 11  3 11 12  3 4 12  4 12 13  4 5 13  5 13 14  5 6 14  6 14 15  6 7 15  8 16 17  8 9 17  9 17 18  9 10 18  10 18 19  10 11 19  11 19 20  11 12 20  12 20 21  12 13 21  13 21 22  13 14 22  14 22 23  14 15 23  16 24 25  16 17 25  17 25 26  17 18 26  18 26 27  18 19 27  19 27 28  19 20 28  20 28 29  20 21 29  21 29 30  21 22 30  22 30 31  22 23 31  24 32 33  24 25 33  25 33 34  25 26 34  26 34 35  26 27 35  27 35 36  27 28 36  28 36 37  28 29 37  29 37 38  29 30 38  30 38 39  30 31 39  32 40 41  32 33 41  33 41 42  33 34 42  34 42 43  34 35 43  35 43 44  35 36 44  36 44 45  36 37 45  37 45 46  37 38 46  38 46 47  38 39 47  40 48 49  40 41 49  41 49 50  41 42 50  42 50 51  42 43 51  43 51 52  43 44 52  44 52 53  44 45 53  45 53 54  45 46 54  46 54 55  46 47 55  48 56 57  48 49 57  49 57 58  49 50 58  50 58 59  50 51 59  51 59 60  51 52 60  52 60 61  52 53 61  53 61 62  53 54 62  54 62 63  54 55 63  56 64 65  56 57 65  57 65 66  57 58 66  58 66 67  58 59 67  59 67 68  59 60 68  60 68 69  60 61 69  61 69 70  61 62 70  62 70 71  62 63 71  </DataArray>
<DataArray  type="UInt32"  Name="offsets"  format="ascii">3 6 9 12 15 18 21 24 27 30 33 36 39 42 45 48 51 54 57 60 63 66 69 72 75 78 81 84 87 90 93 96 99 102 105 108 111 114 117 120 123 126 129 132 135 138 141 144 147 150 153 156 159 162 165 168 171 174 177 180 183 186 189 192 195 198 201 204 207 210 213 216 219 222 225 228 231 234 237 240 243 246 249 252 255 258 261 264 267 270 273 276 279 282 285 288 291 294 297 300 303 306 309 312 315 318 321 324 327 330 333 336 </DataArray>
<DataArray  type="UInt8"  Name="types"  format="ascii">5 5 5 5 5 5 5 5 5 5 5 5 5 5 5 5 5 5 5 5 5 5 5 5 5 5 5 5 5 5 5 5 5 5 5 5 5 5 5 5 5 5 5 5 5 5 5 5 5 5 5 5 5 5 5 5 5 5 5 5 5 5 5 5 5 5 5 5 5 5 5 5 5 5 5 5 5 5 5 5 5 5 5 5 5 5 5 5 5 5 5 5 5 5 5 5 5 5 5 5 5 5 5 5 5 5 5 5 5 5 5 5 </DataArray>
</Cells>
<PointData  Scalars="ControlVisualization"> 
<DataArray  type="Float64"  Name="ControlVisualization"  format="ascii">1.1518186629145877e+00  1.0656409469295265e+00  8.2320800529749683e-01  5.5241120376564468e-01  6.2406071099751448e-01  8.2317948698795507e-01  8.8193363527225421e-01  8.9297542955999465e-01  1.0486878611514898e+00  1.0512006053700500e+00  9.2653514473986265e-01  6.9564715759609030e-01  6.6924448369964018e-01  8.3026249046863332e-01  9.0077656208187218e-01  9.0388960956106301e-01  8.9145024079455559e-01  9.6799841061917291e-01  1.1239385156383868e+00  1.0852835711774300e+00  9.6934218173301623e-01  9.1170298941952543e-01  8.9557175880253181e-01  8.9179911451962679e-01  9.5567182770944703e-01  9.5726665840482605e-01  1.2335089209510068e+00  1.4678644014494033e+00  1.3903604212834746e+00  1.1335696891699394e+00  9.4231846700567623e-01  8.8630118675061187e-01  1.0424273685292926e+00  1.0009393529733235e+00  1.1221741120604145e+00  1.4107169315656283e+00  1.4584350628643263e+00  1.2450099892289967e+00  1.0424438307988693e+00  9.7754864654797591e-01  1.0262201443953454e+00  9.8272896950790878e-01  9.3095400876848100e-01  1.0362904683236633e+00  1.1208863886096769e+00  1.0654226353163319e+00  1.0027434258545931e+00  1.0006202290761885e+00  9.5847246333433711e-01  9.2066258448880045e-01  8.1634519921663540e-01  7.5509943012216785e-01  7.6320316294284463e-01  8.0118514669516538e-01  8.6062835931423698e-01  9.0823231551762629e-01  9.0414351021075856e-01  8.7307115808864411e-01  7.7445411804185660e-01  6.7600089718405587e-01  6.4211138874619000e-01  6.9209643958122824e-01  7.8036044037283825e-01  8.3134882319964087e-01  8.8037601950025945e-01  8.5718502874160385e-01  7.6928293101497303e-01  6.6858189140564328e-01  6.2844273169966502e-01  6.7843230928034159e-01  7.6847056695308835e-01  8.1649658160062699e-01  </DataArray> 
</PointData> 
</Piece>
</UnstructuredGrid>
</VTKFile>