<?xml version="1.0"?>
<VTKFile type="UnstructuredGrid"  version="0.1"  >
<UnstructuredGrid>
<Piece  NumberOfPoints="72" NumberOfCells="112">
<Points>
<DataArray  type="Float64"  NumberOfComponents="3"  format="ascii">0 0 0  1 0 0  2 0 0  3 0 0  4 0 0  5 0 0  6 0 0  7 0 0  0 1 0  1 1 0  2 1 0  3 1 0  4 1 0  5 1 0  6 1 0  7 1 0  0 2 0  1 2 0  2 2 0  3 2 0  4 2 0  5 2 0  6 2 0  7 2 0  0 3 0  1 3 0  2 3 0  3 3 0  4 3 0  5 3 0  6 3 0  7 3 0  0 4 0  1 4 0  2 4 0  3 4 0  4 4 0  5 4 0  6 4 0  7 4 0  0 5 0  1 5 0  2 5 0  3 5 0  4 5 0  5 5 0  6 5 0  7 5 0  0 6 0  1 6 0  2 6 0  3 6 0  4 6 0  5 6 0  6 6 0  7 6 0  0 7 0  1 7 0  2 7 0  3 7 0  4 7 0  5 7 0  6 7 0  7 7 0  0 8 0  1 8 0  2 8 0  3 8 0  4 8 0  5 8 0  6 8 0  7 8 0  </DataArray>
</Points>
<Cells>
<DataArray  type="UInt32"  Name="connectivity"  format="ascii">0 8 9  0 1 9  1 9 10  1 2 10  2 10 11  2 3 11  3 11 12  3 4 12  4 12 13  4 5 13  5 13 14  5 6 14  6 14 15  6 7 15  8 16 17  8 9 17  9 17 18  9 10 18  10 18 19  10 11 19  11 19 20  11 12 20  12 20 21  12 13 21  13 21 22  13 14 22  14 22 23  14 15 23  16 24 25  16 17 25  17 25 26  17 18 26  18 26 27  18 19 27  19 27 28  19 20 28  20 28 29  20 21 29  21 29 30  21 22 30  22 30 31  22 23 31  24 32 33  24 25 33  25 33 34  25 26 34  26 34 35  26 27 35  27 35 36  27 28 36  28 36 37  28 29 37  29 37 38  29 30 38  30 38 39  30 31 39  32 40 41  32 33 41  33 41 42  33 34 42  34 42 43  34 35 43  35 43 44  35 36 44  36 44 45  36 37 45  37 45 46  37 38 46  38 46 47  38 39 47  40 48 49  40 41 49  41 49 50  41 42 50  42 50 51  42 43 51  43 51 52  43 44 52  44 52 53  44 45 53  45 53 54  45 46 54  46 54 55  46 47 55  48 56 57  48 49 57  49 57 58  49 50 58  50 58 59  50 51 59  51 59 60  51 52 60  52 60 61  52 53 61  53 61 62  53 54 62  54 62 63  54 55 63  56 64 65  56 57 65  57 65 66  57 58 66  58 66 67  58 59 67  59 67 68  59 60 68  60 68 69  60 61 69  61 69 70  61 62 70  62 70 71  62 63 71  </DataArray>
<DataArray  type="UInt32"  Name="offsets"  format="ascii">3 6 9 12 15 18 21 24 27 30 33 36 39 42 45 48 51 54 57 60 63 66 69 72 75 78 81 84 87 90 93 96 99 102 105 108 111 114 117 120 123 126 129 132 135 138 141 144 147 150 153 156 159 162 165 168 171 174 177 180 183 186 189 192 195 198 201 204 207 210 213 216 219 222 225 228 231 234 237 240 243 246 249 252 255 258 261 264 267 270 273 276 279 282 285 288 291 294 297 300 303 306 309 312 315 318 321 324 327 330 333 336 </DataArray>
<DataArray  type="UInt8"  Name="types"  format="ascii">5 5 5 5 5 5 5 5 5 5 5 5 5 5 5 5 5 5 5 5 5 5 5 5 5 5 5 5 5 5 5 5 5 5 5 5 5 5 5 5 5 5 5 5 5 5 5 5 5 5 5 5 5 5 5 5 5 5 5 5 5 5 5 5 5 5 5 5 5 5 5 5 5 5 5 5 5 5 5 5 5 5 5 5 5 5 5 5 5 5 5 5 5 5 5 5 5 5 5 5 5 5 5 5 5 5 5 5 5 5 5 5 </DataArray>
</Cells>
<PointData  Scalars="ControlVisualization"> 
<DataArray  type="Float64"  Name="ControlVisualization"  format="ascii">1.0282148084808271e+00  9.9268544230511613e-01  8.9977175144117194e-01  8.2146648125489530e-01  8.7589615204122362e-01  9.8399809425866425e-01  1.0157757759707631e+00  9.9995409330795615e-01  1.0362561754812918e+00  1.0777809286904598e+00  9.7272798542950933e-01  8.1250822366705111e-01  7.8723178808414640e-01  9.1661013949282344e-01  9.8360649838855496e-01  9.9807551485285539e-01  9.2986067618828772e-01  1.0369863550019791e+00  1.1946360073750202e+00  1.1409147766143697e+00  1.0343720818243418e+00  9.7868783220103717e-01  9.3851043599566153e-01  9.4999990250657496e-01  9.4869437848802463e-01  9.4755525873867763e-01  1.2600145853510647e+00  1.4566871927447518e+00  1.3794563860855993e+00  1.1645434893116802e+00  9.9399236365132770e-01  9.5920205735096353e-01  9.8442225327037325e-01  9.4425114823926259e-01  1.0908927860598496e+00  1.3912341139547149e+00  1.4444136700942434e+00  1.2573346955314133e+00  1.0662390926434218e+00  1.0005011235845893e+00  9.8819258850960401e-01  9.5944535203978520e-01  9.2591602306467213e-01  1.0628213927559498e+00  1.1791009403291275e+00  1.1314085458947212e+00  1.0287006376562065e+00  1.0001816685962528e+00  9.8187486009432989e-01  9.5466134124591839e-01  8.6730515309526957e-01  8.2134135936785579e-01  8.6821044296674310e-01  9.3120602941059183e-01  9.4651267831864438e-01  9.6933446249369604e-01  9.8295848752830906e-01  9.4901189505026740e-01  8.7383705224857378e-01  7.7850137595905466e-01  7.4747235252602817e-01  8.1436715298063356e-01  9.0463356715853382e-01  9.6015935319019041e-01  9.9902988008187443e-01  9.8204874369473794e-01  9.4912878139681689e-01  8.9840265953506815e-01  8.6351366422099973e-01  8.7677940940652421e-01  9.2985670942742205e-01  9.7578767460329274e-01  </DataArray> 
</PointData> 
</Piece>
</UnstructuredGrid>
</VTKFile>