<?xml version="1.0"?>
<VTKFile type="UnstructuredGrid"  version="0.1"  >
<UnstructuredGrid>
<Piece  NumberOfPoints="72" NumberOfCells="112">
<Points>
<DataArray  type="Float64"  NumberOfComponents="3"  format="ascii">0 0 0  1 0 0  2 0 0  3 0 0  4 0 0  5 0 0  6 0 0  7 0 0  0 1 0  1 1 0  2 1 0  3 1 0  4 1 0  5 1 0  6 1 0  7 1 0  0 2 0  1 2 0  2 2 0  3 2 0  4 2 0  5 2 0  6 2 0  7 2 0  0 3 0  1 3 0  2 3 0  3 3 0  4 3 0  5 3 0  6 3 0  7 3 0  0 4 0  1 4 0  2 4 0  3 4 0  4 4 0  5 4 0  6 4 0  7 4 0  0 5 0  1 5 0  2 5 0  3 5 0  4 5 0  5 5 0  6 5 0  7 5 0  0 6 0  1 6 0  2 6 0  3 6 0  4 6 0  5 6 0  6 6 0  7 6 0  0 7 0  1 7 0  2 7 0  3 7 0  4 7 0  5 7 0  6 7 0  7 7 0  0 8 0  1 8 0  2 8 0  3 8 0  4 8 0  5 8 0  6 8 0  7 8 0  </DataArray>
</Points>
<Cells>
<DataArray  type="UInt32"  Name="connectivity"  format="ascii">0 8 9  0 1 9  1 9 10  1 2 10  2 10 11  2 3 11  3 11 12  3 4 12  4 12 13  4 5 13  5 13 14  5 6 14  6 14 15  6 7 15  8 16 17  8 9 17  9 17 18  9 10 18  10 18 19  10 11 19  11 19 20  11 12 20  12 20 21  12 13 21  13 21 22  13 14 22  14 22 23  14 15 23  16 24 25  16 17 25  17 25 26  17 18 26  18 26 27  18 19 27  19 27 28  19 20 28  20 28 29  20 21 29  21 29 30  21 22 30  22 30 31  22 23 31  24 32 33  24 25 33  25 33 34  25 26 34  26 34 35  26 27 35  27 35 36  27 28 36  28 36 37  28 29 37  29 37 38  29 30 38  30 38 39  30 31 39  32 40 41  32 33 41  33 41 42  33 34 42  34 42 43  34 35 43  35 43 44  35 36 44  36 44 45  36 37 45  37 45 46  37 38 46  38 46 47  38 39 47  40 48 49  40 41 49  41 49 50  41 42 50  42 50 51  42 43 51  43 51 52  43 44 52  44 52 53  44 45 53  45 53 54  45 46 54  46 54 55  46 47 55  48 56 57  48 49 57  49 57 58  49 50 58  50 58 59  50 51 59  51 59 60  51 52 60  52 60 61  52 53 61  53 61 62  53 54 62  54 62 63  54 55 63  56 64 65  56 57 65  57 65 66  57 58 66  58 66 67  58 59 67  59 67 68  59 60 68  60 68 69  60 61 69  61 69 70  61 62 70  62 70 71  62 63 71  </DataArray>
<DataArray  type="UInt32"  Name="offsets"  format="ascii">3 6 9 12 15 18 21 24 27 30 33 36 39 42 45 48 51 54 57 60 63 66 69 72 75 78 81 84 87 90 93 96 99 102 105 108 111 114 117 120 123 126 129 132 135 138 141 144 147 150 153 156 159 162 165 168 171 174 177 180 183 186 189 192 195 198 201 204 207 210 213 216 219 222 225 228 231 234 237 240 243 246 249 252 255 258 261 264 267 270 273 276 279 282 285 288 291 294 297 300 303 306 309 312 315 318 321 324 327 330 333 336 </DataArray>
<DataArray  type="UInt8"  Name="types"  format="ascii">5 5 5 5 5 5 5 5 5 5 5 5 5 5 5 5 5 5 5 5 5 5 5 5 5 5 5 5 5 5 5 5 5 5 5 5 5 5 5 5 5 5 5 5 5 5 5 5 5 5 5 5 5 5 5 5 5 5 5 5 5 5 5 5 5 5 5 5 5 5 5 5 5 5 5 5 5 5 5 5 5 5 5 5 5 5 5 5 5 5 5 5 5 5 5 5 5 5 5 5 5 5 5 5 5 5 5 5 5 5 5 5 </DataArray>
</Cells>
<PointData  Scalars="ControlVisualization"> 
<DataArray  type="Float64"  Name="ControlVisualization"  format="ascii">1.1228378376567583e+00  1.0701985758573456e+00  8.6345777330514017e-01  6.2714624709694622e-01  7.2083441676778726e-01  9.3062097610088035e-01  9.7769498895807427e-01  9.8126476632442716e-01  1.0429645819345899e+00  1.0665405971503448e+00  9.7493144111694396e-01  7.7373816163500164e-01  7.6788853330001172e-01  9.3111286828244966e-01  9.7921660580489456e-01  9.6815908719359089e-01  9.1343799988235386e-01  1.0063127794205218e+00  1.1803992246987622e+00  1.1611848486779162e+00  1.0604448714252546e+00  1.0009283050513296e+00  9.5225651193264504e-01  9.2329594807815762e-01  9.8319307978816317e-01  1.0009646518193061e+00  1.2874263246409932e+00  1.5270559765493088e+00  1.4603221063806175e+00  1.2095182511129459e+00  9.9969313352413636e-01  9.2553334428428236e-01  1.0740425975607684e+00  1.0378358911741368e+00  1.1674561760681912e+00  1.4599727318422571e+00  1.5159147135923132e+00  1.3127268975462545e+00  1.1042119055018311e+00  1.0322832527688783e+00  1.0543027404733325e+00  1.0151508105729048e+00  9.7189808614319473e-01  1.0807503903800175e+00  1.1721509852956238e+00  1.1268847031530052e+00  1.0615899478761355e+00  1.0564682267977399e+00  9.8412967762767289e-01  9.5431651091795600e-01  8.5664729695888220e-01  7.9519371353270663e-01  8.0480833124365592e-01  8.5041713478912029e-01  9.1112307348162025e-01  9.5598984960892841e-01  9.4371736977834531e-01  9.1097663301735565e-01  8.1085371012194341e-01  7.0695144957905487e-01  6.6950917627947804e-01  7.2378071507254016e-01  8.2196978669559440e-01  8.8101637347584516e-01  9.4152747180426399e-01  8.9705294597543284e-01  7.9448754928597920e-01  6.8781753672771462e-01  6.4696777897227509e-01  7.0260486663586241e-01  8.1007203394429739e-01  8.7962953705799796e-01  </DataArray> 
</PointData> 
</Piece>
</UnstructuredGrid>
</VTKFile>