<?xml version="1.0"?>
<VTKFile type="UnstructuredGrid"  version="0.1"  >
<UnstructuredGrid>
<Piece  NumberOfPoints="72" NumberOfCells="112">
<Points>
<DataArray  type="Float64"  NumberOfComponents="3"  format="ascii">0 0 0  1 0 0  2 0 0  3 0 0  4 0 0  5 0 0  6 0 0  7 0 0  0 1 0  1 1 0  2 1 0  3 1 0  4 1 0  5 1 0  6 1 0  7 1 0  0 2 0  1 2 0  2 2 0  3 2 0  4 2 0  5 2 0  6 2 0  7 2 0  0 3 0  1 3 0  2 3 0  3 3 0  4 3 0  5 3 0  6 3 0  7 3 0  0 4 0  1 4 0  2 4 0  3 4 0  4 4 0  5 4 0  6 4 0  7 4 0  0 5 0  1 5 0  2 5 0  3 5 0  4 5 0  5 5 0  6 5 0  7 5 0  0 6 0  1 6 0  2 6 0  3 6 0  4 6 0  5 6 0  6 6 0  7 6 0  0 7 0  1 7 0  2 7 0  3 7 0  4 7 0  5 7 0  6 7 0  7 7 0  0 8 0  1 8 0  2 8 0  3 8 0  4 8 0  5 8 0  6 8 0  7 8 0  </DataArray>
</Points>
<Cells>
<DataArray  type="UInt32"  Name="connectivity"  format="ascii">0 8 9  0 1 9  1 9 10  1 2 10  2 10 11  2 3 11  3 11 12  3 4 12  4 12 13  4 5 13  5 13 14  5 6 14  6 14 15  6 7 15  8 16 17  8 9 17  9 17 18  9 10 18  10 18 19  10 11 19  11 19 20  11 12 20  12 20 21  12 13 21  13 21 22  13 14 22  14 22 23  14 15 23  16 24 25  16 17 25  17 25 26  17 18 26  18 26 27  18 19 27  19 27 28  19 20 28  20 28 29  20 21 29  21 29 30  21 22 30  22 30 31  22 23 31  24 32 33  24 25 33  25 33 34  25 26 34  26 34 35  26 27 35  27 35 36  27 28 36  28 36 37  28 29 37  29 37 38  29 30 38  30 38 39  30 31 39  32 40 41  32 33 41  33 41 42  33 34 42  34 42 43  34 35 43  35 43 44  35 36 44  36 44 45  36 37 45  37 45 46  37 38 46  38 46 47  38 39 47  40 48 49  40 41 49  41 49 50  41 42 50  42 50 51  42 43 51  43 51 52  43 44 52  44 52 53  44 45 53  45 53 54  45 46 54  46 54 55  46 47 55  48 56 57  48 49 57  49 57 58  49 50 58  50 58 59  50 51 59  51 59 60  51 52 60  52 60 61  52 53 61  53 61 62  53 54 62  54 62 63  54 55 63  56 64 65  56 57 65  57 65 66  57 58 66  58 66 67  58 59 67  59 67 68  59 60 68  60 68 69  60 61 69  61 69 70  61 62 70  62 70 71  62 63 71  </DataArray>
<DataArray  type="UInt32"  Name="offsets"  format="ascii">3 6 9 12 15 18 21 24 27 30 33 36 39 42 45 48 51 54 57 60 63 66 69 72 75 78 81 84 87 90 93 96 99 102 105 108 111 114 117 120 123 126 129 132 135 138 141 144 147 150 153 156 159 162 165 168 171 174 177 180 183 186 189 192 195 198 201 204 207 210 213 216 219 222 225 228 231 234 237 240 243 246 249 252 255 258 261 264 267 270 273 276 279 282 285 288 291 294 297 300 303 306 309 312 315 318 321 324 327 330 333 336 </DataArray>
<DataArray  type="UInt8"  Name="types"  format="ascii">5 5 5 5 5 5 5 5 5 5 5 5 5 5 5 5 5 5 5 5 5 5 5 5 5 5 5 5 5 5 5 5 5 5 5 5 5 5 5 5 5 5 5 5 5 5 5 5 5 5 5 5 5 5 5 5 5 5 5 5 5 5 5 5 5 5 5 5 5 5 5 5 5 5 5 5 5 5 5 5 5 5 5 5 5 5 5 5 5 5 5 5 5 5 5 5 5 5 5 5 5 5 5 5 5 5 5 5 5 5 5 5 </DataArray>
</Cells>
<PointData  Scalars="ControlVisualization"> 
<DataArray  type="Float64"  Name="ControlVisualization"  format="ascii">1.0009233227160739e+00  1.0029629530268647e+00  9.9872207546802361e-01  9.9557344487637145e-01  9.9679090396134884e-01  1.0000218586587515e+00  1.0005014364289291e+00  1.0000000000000000e+00  9.9815521048397260e-01  1.0067940336177865e+00  1.0039505365322576e+00  9.9604790397519349e-01  9.9382683929839799e-01  9.9724870826139334e-01  9.9872394255063301e-01  9.9943094616772510e-01  9.9298272395972198e-01  1.0000599429672437e+00  1.0127809922528290e+00  1.0074271907800991e+00  1.0014945114592833e+00  9.9876657298458760e-01  9.9710429270189493e-01  9.9787493761940793e-01  9.9488822109517916e-01  9.9224559310464877e-01  1.0112795812553734e+00  1.0203482945327713e+00  1.0148516810185033e+00  1.0056724168153888e+00  9.9999267641708600e-01  9.9884933640948459e-01  9.9737590454296066e-01  9.9324904318573126e-01  1.0010668377091543e+00  1.0147459239329117e+00  1.0176723663027463e+00  1.0099329666409969e+00  1.0028927056253203e+00  1.0004320463153125e+00  9.9851600691539011e-01  9.9567062224734060e-01  9.9503080607416838e-01  1.0004543705862194e+00  1.0061372052937598e+00  1.0051509298145613e+00  1.0012311785488597e+00  1.0001788294847163e+00  9.9897369920346446e-01  9.9689717862097094e-01  9.9373666601903787e-01  9.9204925116461951e-01  9.9428180099423136e-01  9.9744145895339331e-01  9.9802915167584338e-01  9.9890025843233032e-01  9.9931167127828546e-01  9.9739055129790544e-01  9.9440587847504824e-01  9.9090945272578779e-01  9.9010413224554206e-01  9.9297795264870070e-01  9.9651245249930609e-01  9.9858694669235737e-01  1.0000000000000000e+00  9.9925940840141314e-01  9.9800004500445982e-01  9.9623768399360824e-01  9.9513348867513340e-01  9.9563622435666632e-01  9.9750603389076009e-01  9.9914911914383897e-01  </DataArray> 
</PointData> 
</Piece>
</UnstructuredGrid>
</VTKFile>