<?xml version="1.0"?>
<VTKFile type="UnstructuredGrid"  version="0.1"  >
<UnstructuredGrid>
<Piece  NumberOfPoints="72" NumberOfCells="112">
<Points>
<DataArray  type="Float64"  NumberOfComponents="3"  format="ascii">0 0 0  1 0 0  2 0 0  3 0 0  4 0 0  5 0 0  6 0 0  7 0 0  0 1 0  1 1 0  2 1 0  3 1 0  4 1 0  5 1 0  6 1 0  7 1 0  0 2 0  1 2 0  2 2 0  3 2 0  4 2 0  5 2 0  6 2 0  7 2 0  0 3 0  1 3 0  2 3 0  3 3 0  4 3 0  5 3 0  6 3 0  7 3 0  0 4 0  1 4 0  2 4 0  3 4 0  4 4 0  5 4 0  6 4 0  7 4 0  0 5 0  1 5 0  2 5 0  3 5 0  4 5 0  5 5 0  6 5 0  7 5 0  0 6 0  1 6 0  2 6 0  3 6 0  4 6 0  5 6 0  6 6 0  7 6 0  0 7 0  1 7 0  2 7 0  3 7 0  4 7 0  5 7 0  6 7 0  7 7 0  0 8 0  1 8 0  2 8 0  3 8 0  4 8 0  5 8 0  6 8 0  7 8 0  </DataArray>
</Points>
<Cells>
<DataArray  type="UInt32"  Name="connectivity"  format="ascii">0 8 9  0 1 9  1 9 10  1 2 10  2 10 11  2 3 11  3 11 12  3 4 12  4 12 13  4 5 13  5 13 14  5 6 14  6 14 15  6 7 15  8 16 17  8 9 17  9 17 18  9 10 18  10 18 19  10 11 19  11 19 20  11 12 20  12 20 21  12 13 21  13 21 22  13 14 22  14 22 23  14 15 23  16 24 25  16 17 25  17 25 26  17 18 26  18 26 27  18 19 27  19 27 28  19 20 28  20 28 29  20 21 29  21 29 30  21 22 30  22 30 31  22 23 31  24 32 33  24 25 33  25 33 34  25 26 34  26 34 35  26 27 35  27 35 36  27 28 36  28 36 37  28 29 37  29 37 38  29 30 38  30 38 39  30 31 39  32 40 41  32 33 41  33 41 42  33 34 42  34 42 43  34 35 43  35 43 44  35 36 44  36 44 45  36 37 45  37 45 46  37 38 46  38 46 47  38 39 47  40 48 49  40 41 49  41 49 50  41 42 50  42 50 51  42 43 51  43 51 52  43 44 52  44 52 53  44 45 53  45 53 54  45 46 54  46 54 55  46 47 55  48 56 57  48 49 57  49 57 58  49 50 58  50 58 59  50 51 59  51 59 60  51 52 60  52 60 61  52 53 61  53 61 62  53 54 62  54 62 63  54 55 63  56 64 65  56 57 65  57 65 66  57 58 66  58 66 67  58 59 67  59 67 68  59 60 68  60 68 69  60 61 69  61 69 70  61 62 70  62 70 71  62 63 71  </DataArray>
<DataArray  type="UInt32"  Name="offsets"  format="ascii">3 6 9 12 15 18 21 24 27 30 33 36 39 42 45 48 51 54 57 60 63 66 69 72 75 78 81 84 87 90 93 96 99 102 105 108 111 114 117 120 123 126 129 132 135 138 141 144 147 150 153 156 159 162 165 168 171 174 177 180 183 186 189 192 195 198 201 204 207 210 213 216 219 222 225 228 231 234 237 240 243 246 249 252 255 258 261 264 267 270 273 276 279 282 285 288 291 294 297 300 303 306 309 312 315 318 321 324 327 330 333 336 </DataArray>
<DataArray  type="UInt8"  Name="types"  format="ascii">5 5 5 5 5 5 5 5 5 5 5 5 5 5 5 5 5 5 5 5 5 5 5 5 5 5 5 5 5 5 5 5 5 5 5 5 5 5 5 5 5 5 5 5 5 5 5 5 5 5 5 5 5 5 5 5 5 5 5 5 5 5 5 5 5 5 5 5 5 5 5 5 5 5 5 5 5 5 5 5 5 5 5 5 5 5 5 5 5 5 5 5 5 5 5 5 5 5 5 5 5 5 5 5 5 5 5 5 5 5 5 5 </DataArray>
</Cells>
<PointData  Scalars="ControlVisualization"> 
<DataArray  type="Float64"  Name="ControlVisualization"  format="ascii">1.1515647690621404e+00  1.0654274782952498e+00  8.2264122120102900e-01  5.5130925709223466e-01  6.2329134897602612e-01  8.2247978406112654e-01  8.8136726281134381e-01  8.9273846448706451e-01  1.0488295123714173e+00  1.0507676397112571e+00  9.2589962766350531e-01  6.9497458795344080e-01  6.6858875213960112e-01  8.2973678211686064e-01  9.0035653965238693e-01  9.0356133038159692e-01  8.9143081176969241e-01  9.6780712111432388e-01  1.1235722285773537e+00  1.0849485699085917e+00  9.6901775910634547e-01  9.1142658814726440e-01  8.9519710458004409e-01  8.9169556742303524e-01  9.5554056790165331e-01  9.5695757343539223e-01  1.2329966761655096e+00  1.4673918524827405e+00  1.3898786756273376e+00  1.1331891888721930e+00  9.4194609454472922e-01  8.8589527097229470e-01  1.0421032844727069e+00  1.0005672293137597e+00  1.1217350897719527e+00  1.4100500377536056e+00  1.4579495575517749e+00  1.2446021833465575e+00  1.0420209246431700e+00  9.7704350619297964e-01  1.0258277791749537e+00  9.8241650923279167e-01  9.3068093510185168e-01  1.0358641865393612e+00  1.1205380637689277e+00  1.0653415564919482e+00  1.0025689183817243e+00  9.9992679815474528e-01  9.5773091545832367e-01  9.2030061559347187e-01  8.1626523124666850e-01  7.5502326899182515e-01  7.6311298719961296e-01  8.0111023759401245e-01  8.6038880007032259e-01  9.0755459917266212e-01  9.0374360743274673e-01  8.7281796242183318e-01  7.7415952052311821e-01  6.7558471870229198e-01  6.4178584776953118e-01  6.9186731657454936e-01  7.8030629338792212e-01  8.3142341340746750e-01  8.8002372467498391e-01  8.5711943074220431e-01  7.6929936187421855e-01  6.6855949087040045e-01  6.2839279875183196e-01  6.7833978081343260e-01  7.6857887636207034e-01  8.1710096245011732e-01  </DataArray> 
</PointData> 
</Piece>
</UnstructuredGrid>
</VTKFile>