<?xml version="1.0"?>
<VTKFile type="UnstructuredGrid"  version="0.1"  >
<UnstructuredGrid>
<Piece  NumberOfPoints="72" NumberOfCells="112">
<Points>
<DataArray  type="Float64"  NumberOfComponents="3"  format="ascii">0 0 0  1 0 0  2 0 0  3 0 0  4 0 0  5 0 0  6 0 0  7 0 0  0 1 0  1 1 0  2 1 0  3 1 0  4 1 0  5 1 0  6 1 0  7 1 0  0 2 0  1 2 0  2 2 0  3 2 0  4 2 0  5 2 0  6 2 0  7 2 0  0 3 0  1 3 0  2 3 0  3 3 0  4 3 0  5 3 0  6 3 0  7 3 0  0 4 0  1 4 0  2 4 0  3 4 0  4 4 0  5 4 0  6 4 0  7 4 0  0 5 0  1 5 0  2 5 0  3 5 0  4 5 0  5 5 0  6 5 0  7 5 0  0 6 0  1 6 0  2 6 0  3 6 0  4 6 0  5 6 0  6 6 0  7 6 0  0 7 0  1 7 0  2 7 0  3 7 0  4 7 0  5 7 0  6 7 0  7 7 0  0 8 0  1 8 0  2 8 0  3 8 0  4 8 0  5 8 0  6 8 0  7 8 0  </DataArray>
</Points>
<Cells>
<DataArray  type="UInt32"  Name="connectivity"  format="ascii">0 8 9  0 1 9  1 9 10  1 2 10  2 10 11  2 3 11  3 11 12  3 4 12  4 12 13  4 5 13  5 13 14  5 6 14  6 14 15  6 7 15  8 16 17  8 9 17  9 17 18  9 10 18  10 18 19  10 11 19  11 19 20  11 12 20  12 20 21  12 13 21  13 21 22  13 14 22  14 22 23  14 15 23  16 24 25  16 17 25  17 25 26  17 18 26  18 26 27  18 19 27  19 27 28  19 20 28  20 28 29  20 21 29  21 29 30  21 22 30  22 30 31  22 23 31  24 32 33  24 25 33  25 33 34  25 26 34  26 34 35  26 27 35  27 35 36  27 28 36  28 36 37  28 29 37  29 37 38  29 30 38  30 38 39  30 31 39  32 40 41  32 33 41  33 41 42  33 34 42  34 42 43  34 35 43  35 43 44  35 36 44  36 44 45  36 37 45  37 45 46  37 38 46  38 46 47  38 39 47  40 48 49  40 41 49  41 49 50  41 42 50  42 50 51  42 43 51  43 51 52  43 44 52  44 52 53  44 45 53  45 53 54  45 46 54  46 54 55  46 47 55  48 56 57  48 49 57  49 57 58  49 50 58  50 58 59  50 51 59  51 59 60  51 52 60  52 60 61  52 53 61  53 61 62  53 54 62  54 62 63  54 55 63  56 64 65  56 57 65  57 65 66  57 58 66  58 66 67  58 59 67  59 67 68  59 60 68  60 68 69  60 61 69  61 69 70  61 62 70  62 70 71  62 63 71  </DataArray>
<DataArray  type="UInt32"  Name="offsets"  format="ascii">3 6 9 12 15 18 21 24 27 30 33 36 39 42 45 48 51 54 57 60 63 66 69 72 75 78 81 84 87 90 93 96 99 102 105 108 111 114 117 120 123 126 129 132 135 138 141 144 147 150 153 156 159 162 165 168 171 174 177 180 183 186 189 192 195 198 201 204 207 210 213 216 219 222 225 228 231 234 237 240 243 246 249 252 255 258 261 264 267 270 273 276 279 282 285 288 291 294 297 300 303 306 309 312 315 318 321 324 327 330 333 336 </DataArray>
<DataArray  type="UInt8"  Name="types"  format="ascii">5 5 5 5 5 5 5 5 5 5 5 5 5 5 5 5 5 5 5 5 5 5 5 5 5 5 5 5 5 5 5 5 5 5 5 5 5 5 5 5 5 5 5 5 5 5 5 5 5 5 5 5 5 5 5 5 5 5 5 5 5 5 5 5 5 5 5 5 5 5 5 5 5 5 5 5 5 5 5 5 5 5 5 5 5 5 5 5 5 5 5 5 5 5 5 5 5 5 5 5 5 5 5 5 5 5 5 5 5 5 5 5 </DataArray>
</Cells>
<PointData  Scalars="ControlVisualization"> 
<DataArray  type="Float64"  Name="ControlVisualization"  format="ascii">1.1515541750175917e+00  1.0808809834198672e+00  8.4348203014406631e-01  5.7004398990409400e-01  6.4555664180921368e-01  8.6131091025734186e-01  9.2736431710523892e-01  9.4488459130409874e-01  1.0566258656504537e+00  1.0609827139834223e+00  9.4669551065628377e-01  7.1789816839850862e-01  6.9581107221468108e-01  8.6282536613523797e-01  9.3369350839025511e-01  9.3693833337572152e-01  9.1359781736338463e-01  9.8670485719496748e-01  1.1417726737494875e+00  1.1079485054737421e+00  9.9386898563956660e-01  9.3620406838784276e-01  9.1512845440132351e-01  9.1301791926758435e-01  9.7685714783580357e-01  9.7595589567567220e-01  1.2497640944592505e+00  1.4862633582068356e+00  1.4108713568711482e+00  1.1537647066126155e+00  9.6124029622682283e-01  9.0449678796677380e-01  1.0572885205803177e+00  1.0147833585547130e+00  1.1363689796368266e+00  1.4268312363613691e+00  1.4770327278747704e+00  1.2620857195693969e+00  1.0578271428989157e+00  9.8885256244629671e-01  1.0337724265876895e+00  9.9249385952620861e-01  9.4182432938138527e-01  1.0513476051502075e+00  1.1381353625367721e+00  1.0803759621319948e+00  1.0136004883184644e+00  1.0064733149460052e+00  9.5698045398026377e-01  9.2555796696760229e-01  8.2557784888922969e-01  7.6785291152451385e-01  7.7870509538252897e-01  8.1410328149806921e-01  8.6766955607772012e-01  9.0931243142282225e-01  8.9596000914912355e-01  8.7417014498585210e-01  7.8363086086368650e-01  6.8964628416450868e-01  6.5749682639393459e-01  7.0462002779214084e-01  7.8548176340104492e-01  8.3009392950694560e-01  8.6681166092330630e-01  8.5566958044837382e-01  7.7847337207596123e-01  6.8350521976013212e-01  6.4465061979457916e-01  6.9136510352826142e-01  7.7269029046283322e-01  8.1287769952341427e-01  </DataArray> 
</PointData> 
</Piece>
</UnstructuredGrid>
</VTKFile>