<?xml version="1.0"?>
<VTKFile type="UnstructuredGrid"  version="0.1"  >
<UnstructuredGrid>
<Piece  NumberOfPoints="72" NumberOfCells="112">
<Points>
<DataArray  type="Float64"  NumberOfComponents="3"  format="ascii">0 0 0  1 0 0  2 0 0  3 0 0  4 0 0  5 0 0  6 0 0  7 0 0  0 1 0  1 1 0  2 1 0  3 1 0  4 1 0  5 1 0  6 1 0  7 1 0  0 2 0  1 2 0  2 2 0  3 2 0  4 2 0  5 2 0  6 2 0  7 2 0  0 3 0  1 3 0  2 3 0  3 3 0  4 3 0  5 3 0  6 3 0  7 3 0  0 4 0  1 4 0  2 4 0  3 4 0  4 4 0  5 4 0  6 4 0  7 4 0  0 5 0  1 5 0  2 5 0  3 5 0  4 5 0  5 5 0  6 5 0  7 5 0  0 6 0  1 6 0  2 6 0  3 6 0  4 6 0  5 6 0  6 6 0  7 6 0  0 7 0  1 7 0  2 7 0  3 7 0  4 7 0  5 7 0  6 7 0  7 7 0  0 8 0  1 8 0  2 8 0  3 8 0  4 8 0  5 8 0  6 8 0  7 8 0  </DataArray>
</Points>
<Cells>
<DataArray  type="UInt32"  Name="connectivity"  format="ascii">0 8 9  0 1 9  1 9 10  1 2 10  2 10 11  2 3 11  3 11 12  3 4 12  4 12 13  4 5 13  5 13 14  5 6 14  6 14 15  6 7 15  8 16 17  8 9 17  9 17 18  9 10 18  10 18 19  10 11 19  11 19 20  11 12 20  12 20 21  12 13 21  13 21 22  13 14 22  14 22 23  14 15 23  16 24 25  16 17 25  17 25 26  17 18 26  18 26 27  18 19 27  19 27 28  19 20 28  20 28 29  20 21 29  21 29 30  21 22 30  22 30 31  22 23 31  24 32 33  24 25 33  25 33 34  25 26 34  26 34 35  26 27 35  27 35 36  27 28 36  28 36 37  28 29 37  29 37 38  29 30 38  30 38 39  30 31 39  32 40 41  32 33 41  33 41 42  33 34 42  34 42 43  34 35 43  35 43 44  35 36 44  36 44 45  36 37 45  37 45 46  37 38 46  38 46 47  38 39 47  40 48 49  40 41 49  41 49 50  41 42 50  42 50 51  42 43 51  43 51 52  43 44 52  44 52 53  44 45 53  45 53 54  45 46 54  46 54 55  46 47 55  48 56 57  48 49 57  49 57 58  49 50 58  50 58 59  50 51 59  51 59 60  51 52 60  52 60 61  52 53 61  53 61 62  53 54 62  54 62 63  54 55 63  56 64 65  56 57 65  57 65 66  57 58 66  58 66 67  58 59 67  59 67 68  59 60 68  60 68 69  60 61 69  61 69 70  61 62 70  62 70 71  62 63 71  </DataArray>
<DataArray  type="UInt32"  Name="offsets"  format="ascii">3 6 9 12 15 18 21 24 27 30 33 36 39 42 45 48 51 54 57 60 63 66 69 72 75 78 81 84 87 90 93 96 99 102 105 108 111 114 117 120 123 126 129 132 135 138 141 144 147 150 153 156 159 162 165 168 171 174 177 180 183 186 189 192 195 198 201 204 207 210 213 216 219 222 225 228 231 234 237 240 243 246 249 252 255 258 261 264 267 270 273 276 279 282 285 288 291 294 297 300 303 306 309 312 315 318 321 324 327 330 333 336 </DataArray>
<DataArray  type="UInt8"  Name="types"  format="ascii">5 5 5 5 5 5 5 5 5 5 5 5 5 5 5 5 5 5 5 5 5 5 5 5 5 5 5 5 5 5 5 5 5 5 5 5 5 5 5 5 5 5 5 5 5 5 5 5 5 5 5 5 5 5 5 5 5 5 5 5 5 5 5 5 5 5 5 5 5 5 5 5 5 5 5 5 5 5 5 5 5 5 5 5 5 5 5 5 5 5 5 5 5 5 5 5 5 5 5 5 5 5 5 5 5 5 5 5 5 5 5 5 </DataArray>
</Cells>
<PointData  Scalars="ControlVisualization"> 
<DataArray  type="Float64"  Name="ControlVisualization"  format="ascii">1.1510345085607443e+00  1.0652709143070613e+00  8.2380301587339100e-01  5.5346858382923592e-01  6.2470539835620753e-01  8.2327466674327887e-01  8.8193614830610867e-01  8.9298495476868556e-01  1.0484325804695946e+00  1.0512679045376385e+00  9.2721515577796776e-01  6.9688534575410099e-01  6.7037486072973518e-01  8.3065143989129275e-01  9.0085481216028263e-01  9.0384877528475172e-01  8.9125436892364174e-01  9.6838456427628239e-01  1.1246174913552589e+00  1.0862937282929872e+00  9.7011449274680650e-01  9.1192045471894390e-01  8.9546096544004650e-01  8.9175068202808705e-01  9.5578173777210240e-01  9.5770111994867824e-01  1.2344121719947267e+00  1.4688457879220838e+00  1.3910589493943673e+00  1.1339184778134093e+00  9.4262076504000980e-01  8.8661440723382601e-01  1.0428058471323163e+00  1.0016070495726994e+00  1.1231117537430482e+00  1.4117096334815662e+00  1.4590904302029606e+00  1.2454414431485423e+00  1.0428169957425149e+00  9.7787872997846781e-01  1.0266645783042032e+00  9.8333479824307168e-01  9.3176108106654199e-01  1.0371014010082398e+00  1.1215196163907686e+00  1.0658126081639232e+00  1.0030322192440837e+00  1.0008939565964106e+00  9.5901270299731001e-01  9.2127031139736493e-01  8.1696554635208807e-01  7.5568043759984493e-01  7.6367255254438782e-01  8.0148087999414674e-01  8.6083230247493236e-01  9.0839425324638057e-01  9.0508508728010917e-01  8.7386104861268254e-01  7.7508692014075498e-01  6.7659891157728336e-01  6.4264052235300950e-01  6.9241027837109259e-01  7.8049588512919799e-01  8.3143519867398286e-01  8.8165095468603261e-01  8.5812520822097049e-01  7.6991366045912257e-01  6.6911206306183746e-01  6.2884563425571993e-01  6.7864648806612948e-01  7.6852295327263320e-01  8.1652173567297726e-01  </DataArray> 
</PointData> 
</Piece>
</UnstructuredGrid>
</VTKFile>