<?xml version="1.0"?>
<VTKFile type="UnstructuredGrid"  version="0.1"  >
<UnstructuredGrid>
<Piece  NumberOfPoints="72" NumberOfCells="112">
<Points>
<DataArray  type="Float64"  NumberOfComponents="3"  format="ascii">0 0 0  1 0 0  2 0 0  3 0 0  4 0 0  5 0 0  6 0 0  7 0 0  0 1 0  1 1 0  2 1 0  3 1 0  4 1 0  5 1 0  6 1 0  7 1 0  0 2 0  1 2 0  2 2 0  3 2 0  4 2 0  5 2 0  6 2 0  7 2 0  0 3 0  1 3 0  2 3 0  3 3 0  4 3 0  5 3 0  6 3 0  7 3 0  0 4 0  1 4 0  2 4 0  3 4 0  4 4 0  5 4 0  6 4 0  7 4 0  0 5 0  1 5 0  2 5 0  3 5 0  4 5 0  5 5 0  6 5 0  7 5 0  0 6 0  1 6 0  2 6 0  3 6 0  4 6 0  5 6 0  6 6 0  7 6 0  0 7 0  1 7 0  2 7 0  3 7 0  4 7 0  5 7 0  6 7 0  7 7 0  0 8 0  1 8 0  2 8 0  3 8 0  4 8 0  5 8 0  6 8 0  7 8 0  </DataArray>
</Points>
<Cells>
<DataArray  type="UInt32"  Name="connectivity"  format="ascii">0 8 9  0 1 9  1 9 10  1 2 10  2 10 11  2 3 11  3 11 12  3 4 12  4 12 13  4 5 13  5 13 14  5 6 14  6 14 15  6 7 15  8 16 17  8 9 17  9 17 18  9 10 18  10 18 19  10 11 19  11 19 20  11 12 20  12 20 21  12 13 21  13 21 22  13 14 22  14 22 23  14 15 23  16 24 25  16 17 25  17 25 26  17 18 26  18 26 27  18 19 27  19 27 28  19 20 28  20 28 29  20 21 29  21 29 30  21 22 30  22 30 31  22 23 31  24 32 33  24 25 33  25 33 34  25 26 34  26 34 35  26 27 35  27 35 36  27 28 36  28 36 37  28 29 37  29 37 38  29 30 38  30 38 39  30 31 39  32 40 41  32 33 41  33 41 42  33 34 42  34 42 43  34 35 43  35 43 44  35 36 44  36 44 45  36 37 45  37 45 46  37 38 46  38 46 47  38 39 47  40 48 49  40 41 49  41 49 50  41 42 50  42 50 51  42 43 51  43 51 52  43 44 52  44 52 53  44 45 53  45 53 54  45 46 54  46 54 55  46 47 55  48 56 57  48 49 57  49 57 58  49 50 58  50 58 59  50 51 59  51 59 60  51 52 60  52 60 61  52 53 61  53 61 62  53 54 62  54 62 63  54 55 63  56 64 65  56 57 65  57 65 66  57 58 66  58 66 67  58 59 67  59 67 68  59 60 68  60 68 69  60 61 69  61 69 70  61 62 70  62 70 71  62 63 71  </DataArray>
<DataArray  type="UInt32"  Name="offsets"  format="ascii">3 6 9 12 15 18 21 24 27 30 33 36 39 42 45 48 51 54 57 60 63 66 69 72 75 78 81 84 87 90 93 96 99 102 105 108 111 114 117 120 123 126 129 132 135 138 141 144 147 150 153 156 159 162 165 168 171 174 177 180 183 186 189 192 195 198 201 204 207 210 213 216 219 222 225 228 231 234 237 240 243 246 249 252 255 258 261 264 267 270 273 276 279 282 285 288 291 294 297 300 303 306 309 312 315 318 321 324 327 330 333 336 </DataArray>
<DataArray  type="UInt8"  Name="types"  format="ascii">5 5 5 5 5 5 5 5 5 5 5 5 5 5 5 5 5 5 5 5 5 5 5 5 5 5 5 5 5 5 5 5 5 5 5 5 5 5 5 5 5 5 5 5 5 5 5 5 5 5 5 5 5 5 5 5 5 5 5 5 5 5 5 5 5 5 5 5 5 5 5 5 5 5 5 5 5 5 5 5 5 5 5 5 5 5 5 5 5 5 5 5 5 5 5 5 5 5 5 5 5 5 5 5 5 5 5 5 5 5 5 5 </DataArray>
</Cells>
<PointData  Scalars="ControlVisualization"> 
<DataArray  type="Float64"  Name="ControlVisualization"  format="ascii">1.1508787403602923e+00  1.0652359047490658e+00  8.2387032758448242e-01  5.5351425815458533e-01  6.2478460616683795e-01  8.2324065184985296e-01  8.8184604244920550e-01  8.9283145421379273e-01  1.0483197442827219e+00  1.0512092546368279e+00  9.2730622063605272e-01  6.9696480276350203e-01  6.7039040066185929e-01  8.3062385205637468e-01  9.0081912451456070e-01  9.0382616671142313e-01  8.9141321191653489e-01  9.6846175434468895e-01  1.1247648235493783e+00  1.0864414860549103e+00  9.7026211966494558e-01  9.1203818796989189e-01  8.9556023055776413e-01  8.9174274582890112e-01  9.5589937728112895e-01  9.5778895164542655e-01  1.2343628891950118e+00  1.4688675114831393e+00  1.3911319638147741e+00  1.1340072423532894e+00  9.4255805842321294e-01  8.8641839936131717e-01  1.0427696564221338e+00  1.0015539819083974e+00  1.1230527176873308e+00  1.4115615688969179e+00  1.4591483436060502e+00  1.2454921948937034e+00  1.0427904253509510e+00  9.7776423618009545e-01  1.0266322372761238e+00  9.8331978714229806e-01  9.3174887267649453e-01  1.0370829064868481e+00  1.1215350119143181e+00  1.0659113538596001e+00  1.0030685067048046e+00  1.0008178080959065e+00  9.5898401779079034e-01  9.2129199650514226e-01  8.1703794686510722e-01  7.5573646643331926e-01  7.6371430496848591e-01  8.0156096351403927e-01  8.6089819767687514e-01  9.0840690472217889e-01  9.0505411838949823e-01  8.7387661452940157e-01  7.7513941195607228e-01  6.7658326717237116e-01  6.4257477589214906e-01  6.9242346106196018e-01  7.8062290617008911e-01  8.3161199202779379e-01  8.8162166327277036e-01  8.5817190750736139e-01  7.7003178259143323e-01  6.6916860176242732e-01  6.2886185046455267e-01  6.7873624461342519e-01  7.6873344174305036e-01  8.1684233001168161e-01  </DataArray> 
</PointData> 
</Piece>
</UnstructuredGrid>
</VTKFile>