<?xml version="1.0"?>
<VTKFile type="UnstructuredGrid"  version="0.1"  >
<UnstructuredGrid>
<Piece  NumberOfPoints="72" NumberOfCells="112">
<Points>
<DataArray  type="Float64"  NumberOfComponents="3"  format="ascii">0 0 0  1 0 0  2 0 0  3 0 0  4 0 0  5 0 0  6 0 0  7 0 0  0 1 0  1 1 0  2 1 0  3 1 0  4 1 0  5 1 0  6 1 0  7 1 0  0 2 0  1 2 0  2 2 0  3 2 0  4 2 0  5 2 0  6 2 0  7 2 0  0 3 0  1 3 0  2 3 0  3 3 0  4 3 0  5 3 0  6 3 0  7 3 0  0 4 0  1 4 0  2 4 0  3 4 0  4 4 0  5 4 0  6 4 0  7 4 0  0 5 0  1 5 0  2 5 0  3 5 0  4 5 0  5 5 0  6 5 0  7 5 0  0 6 0  1 6 0  2 6 0  3 6 0  4 6 0  5 6 0  6 6 0  7 6 0  0 7 0  1 7 0  2 7 0  3 7 0  4 7 0  5 7 0  6 7 0  7 7 0  0 8 0  1 8 0  2 8 0  3 8 0  4 8 0  5 8 0  6 8 0  7 8 0  </DataArray>
</Points>
<Cells>
<DataArray  type="UInt32"  Name="connectivity"  format="ascii">0 8 9  0 1 9  1 9 10  1 2 10  2 10 11  2 3 11  3 11 12  3 4 12  4 12 13  4 5 13  5 13 14  5 6 14  6 14 15  6 7 15  8 16 17  8 9 17  9 17 18  9 10 18  10 18 19  10 11 19  11 19 20  11 12 20  12 20 21  12 13 21  13 21 22  13 14 22  14 22 23  14 15 23  16 24 25  16 17 25  17 25 26  17 18 26  18 26 27  18 19 27  19 27 28  19 20 28  20 28 29  20 21 29  21 29 30  21 22 30  22 30 31  22 23 31  24 32 33  24 25 33  25 33 34  25 26 34  26 34 35  26 27 35  27 35 36  27 28 36  28 36 37  28 29 37  29 37 38  29 30 38  30 38 39  30 31 39  32 40 41  32 33 41  33 41 42  33 34 42  34 42 43  34 35 43  35 43 44  35 36 44  36 44 45  36 37 45  37 45 46  37 38 46  38 46 47  38 39 47  40 48 49  40 41 49  41 49 50  41 42 50  42 50 51  42 43 51  43 51 52  43 44 52  44 52 53  44 45 53  45 53 54  45 46 54  46 54 55  46 47 55  48 56 57  48 49 57  49 57 58  49 50 58  50 58 59  50 51 59  51 59 60  51 52 60  52 60 61  52 53 61  53 61 62  53 54 62  54 62 63  54 55 63  56 64 65  56 57 65  57 65 66  57 58 66  58 66 67  58 59 67  59 67 68  59 60 68  60 68 69  60 61 69  61 69 70  61 62 70  62 70 71  62 63 71  </DataArray>
<DataArray  type="UInt32"  Name="offsets"  format="ascii">3 6 9 12 15 18 21 24 27 30 33 36 39 42 45 48 51 54 57 60 63 66 69 72 75 78 81 84 87 90 93 96 99 102 105 108 111 114 117 120 123 126 129 132 135 138 141 144 147 150 153 156 159 162 165 168 171 174 177 180 183 186 189 192 195 198 201 204 207 210 213 216 219 222 225 228 231 234 237 240 243 246 249 252 255 258 261 264 267 270 273 276 279 282 285 288 291 294 297 300 303 306 309 312 315 318 321 324 327 330 333 336 </DataArray>
<DataArray  type="UInt8"  Name="types"  format="ascii">5 5 5 5 5 5 5 5 5 5 5 5 5 5 5 5 5 5 5 5 5 5 5 5 5 5 5 5 5 5 5 5 5 5 5 5 5 5 5 5 5 5 5 5 5 5 5 5 5 5 5 5 5 5 5 5 5 5 5 5 5 5 5 5 5 5 5 5 5 5 5 5 5 5 5 5 5 5 5 5 5 5 5 5 5 5 5 5 5 5 5 5 5 5 5 5 5 5 5 5 5 5 5 5 5 5 5 5 5 5 5 5 </DataArray>
</Cells>
<PointData  Scalars="ControlVisualization"> 
<DataArray  type="Float64"  Name="ControlVisualization"  format="ascii">1.1527641626861007e+00  1.0685294465786215e+00  8.2475549174034035e-01  5.5313638175873592e-01  6.2428832476757246e-01  8.2448738748417283e-01  8.8596885062411856e-01  8.9968853015804373e-01  1.0484057924650558e+00  1.0530554085645245e+00  9.2823689517771191e-01  6.9579697290940234e-01  6.7106689988538182e-01  8.3242823216289907e-01  9.0336973072281945e-01  9.0653294331147238e-01  8.9431778224550063e-01  9.6832408212001797e-01  1.1233250933834309e+00  1.0844505157382549e+00  9.6964467544468058e-01  9.1270675894816056e-01  8.9597846600157383e-01  8.9084837272935391e-01  9.5904787844277095e-01  9.5701025319908406e-01  1.2313042450442893e+00  1.4669208326472718e+00  1.3904044935815771e+00  1.1338493124813633e+00  9.4224765698914115e-01  8.8460089968365374e-01  1.0441616197082733e+00  1.0004824422929757e+00  1.1207660435439077e+00  1.4100445318693144e+00  1.4585016426058033e+00  1.2442607129705099e+00  1.0420703127317936e+00  9.7689088216252218e-01  1.0257646494507007e+00  9.8176825025442982e-01  9.2944438397988804e-01  1.0352232263336512e+00  1.1192867009728371e+00  1.0630659676621836e+00  1.0007410501520715e+00  1.0002207903115328e+00  9.5741340799586871e-01  9.1920077862636351e-01  8.1470888078411385e-01  7.5355248274273157e-01  7.6059701766323340e-01  7.9836183479442879e-01  8.5891506369844295e-01  9.0908318191320858e-01  9.0002641450004484e-01  8.7076220086596168e-01  7.7416529764683351e-01  6.7662183047669677e-01  6.4111486511029969e-01  6.8999771102791840e-01  7.7944636307926729e-01  8.3170266645423307e-01  8.7404939193441311e-01  8.5329548178491588e-01  7.6788092087754656e-01  6.6814937912334293e-01  6.2677352934957353e-01  6.7632144637868363e-01  7.6783474445059208e-01  8.1688096967433910e-01  </DataArray> 
</PointData> 
</Piece>
</UnstructuredGrid>
</VTKFile>