<?xml version="1.0"?>
<VTKFile type="UnstructuredGrid"  version="0.1"  >
<UnstructuredGrid>
<Piece  NumberOfPoints="72" NumberOfCells="112">
<Points>
<DataArray  type="Float64"  NumberOfComponents="3"  format="ascii">0 0 0  1 0 0  2 0 0  3 0 0  4 0 0  5 0 0  6 0 0  7 0 0  0 1 0  1 1 0  2 1 0  3 1 0  4 1 0  5 1 0  6 1 0  7 1 0  0 2 0  1 2 0  2 2 0  3 2 0  4 2 0  5 2 0  6 2 0  7 2 0  0 3 0  1 3 0  2 3 0  3 3 0  4 3 0  5 3 0  6 3 0  7 3 0  0 4 0  1 4 0  2 4 0  3 4 0  4 4 0  5 4 0  6 4 0  7 4 0  0 5 0  1 5 0  2 5 0  3 5 0  4 5 0  5 5 0  6 5 0  7 5 0  0 6 0  1 6 0  2 6 0  3 6 0  4 6 0  5 6 0  6 6 0  7 6 0  0 7 0  1 7 0  2 7 0  3 7 0  4 7 0  5 7 0  6 7 0  7 7 0  0 8 0  1 8 0  2 8 0  3 8 0  4 8 0  5 8 0  6 8 0  7 8 0  </DataArray>
</Points>
<Cells>
<DataArray  type="UInt32"  Name="connectivity"  format="ascii">0 8 9  0 1 9  1 9 10  1 2 10  2 10 11  2 3 11  3 11 12  3 4 12  4 12 13  4 5 13  5 13 14  5 6 14  6 14 15  6 7 15  8 16 17  8 9 17  9 17 18  9 10 18  10 18 19  10 11 19  11 19 20  11 12 20  12 20 21  12 13 21  13 21 22  13 14 22  14 22 23  14 15 23  16 24 25  16 17 25  17 25 26  17 18 26  18 26 27  18 19 27  19 27 28  19 20 28  20 28 29  20 21 29  21 29 30  21 22 30  22 30 31  22 23 31  24 32 33  24 25 33  25 33 34  25 26 34  26 34 35  26 27 35  27 35 36  27 28 36  28 36 37  28 29 37  29 37 38  29 30 38  30 38 39  30 31 39  32 40 41  32 33 41  33 41 42  33 34 42  34 42 43  34 35 43  35 43 44  35 36 44  36 44 45  36 37 45  37 45 46  37 38 46  38 46 47  38 39 47  40 48 49  40 41 49  41 49 50  41 42 50  42 50 51  42 43 51  43 51 52  43 44 52  44 52 53  44 45 53  45 53 54  45 46 54  46 54 55  46 47 55  48 56 57  48 49 57  49 57 58  49 50 58  50 58 59  50 51 59  51 59 60  51 52 60  52 60 61  52 53 61  53 61 62  53 54 62  54 62 63  54 55 63  56 64 65  56 57 65  57 65 66  57 58 66  58 66 67  58 59 67  59 67 68  59 60 68  60 68 69  60 61 69  61 69 70  61 62 70  62 70 71  62 63 71  </DataArray>
<DataArray  type="UInt32"  Name="offsets"  format="ascii">3 6 9 12 15 18 21 24 27 30 33 36 39 42 45 48 51 54 57 60 63 66 69 72 75 78 81 84 87 90 93 96 99 102 105 108 111 114 117 120 123 126 129 132 135 138 141 144 147 150 153 156 159 162 165 168 171 174 177 180 183 186 189 192 195 198 201 204 207 210 213 216 219 222 225 228 231 234 237 240 243 246 249 252 255 258 261 264 267 270 273 276 279 282 285 288 291 294 297 300 303 306 309 312 315 318 321 324 327 330 333 336 </DataArray>
<DataArray  type="UInt8"  Name="types"  format="ascii">5 5 5 5 5 5 5 5 5 5 5 5 5 5 5 5 5 5 5 5 5 5 5 5 5 5 5 5 5 5 5 5 5 5 5 5 5 5 5 5 5 5 5 5 5 5 5 5 5 5 5 5 5 5 5 5 5 5 5 5 5 5 5 5 5 5 5 5 5 5 5 5 5 5 5 5 5 5 5 5 5 5 5 5 5 5 5 5 5 5 5 5 5 5 5 5 5 5 5 5 5 5 5 5 5 5 5 5 5 5 5 5 </DataArray>
</Cells>
<PointData  Scalars="ControlVisualization"> 
<DataArray  type="Float64"  Name="ControlVisualization"  format="ascii">1.1509036694639538e+00  1.0652542191626788e+00  8.2381851043055632e-01  5.5341732355383544e-01  6.2470547351810046e-01  8.2320974253831447e-01  8.8186144893819240e-01  8.9292156961634295e-01  1.0483711175662187e+00  1.0511987109654217e+00  9.2724140176858993e-01  6.9690519811568230e-01  6.7035673451495770e-01  8.3061738751269354e-01  9.0080685944503824e-01  9.0384591499718703e-01  8.9135181043942890e-01  9.6840339056065161e-01  1.1246977159886089e+00  1.0863835425927384e+00  9.7020532274945259e-01  9.1198931069602351e-01  8.9552238418232910e-01  8.9173361349764280e-01  9.5585419029010021e-01  9.5772594430279723e-01  1.2342996272381292e+00  1.4688260426569701e+00  1.3910693862034036e+00  1.1339574178176974e+00  9.4255323945962810e-01  8.8647344764550706e-01  1.0427687253790565e+00  1.0015449770675520e+00  1.1230297624590690e+00  1.4115147159440369e+00  1.4590991627966334e+00  1.2454346731713710e+00  1.0427721994663262e+00  9.7777537314780039e-01  1.0266094633909737e+00  9.8329740043953529e-01  9.3172133618487929e-01  1.0370503268186064e+00  1.1214832266364108e+00  1.0658544148664388e+00  1.0030318016903355e+00  1.0007827289541897e+00  9.5893265577173992e-01  9.2124814990784210e-01  8.1700274245957671e-01  7.5570922415581676e-01  7.6368268339958856e-01  8.0150980509338787e-01  8.6083891499021825e-01  9.0833872139596261e-01  9.0501364154894370e-01  8.7383842016970270e-01  7.7510296235226162e-01  6.7656000592870591e-01  6.4256144335737475e-01  6.9237750554627453e-01  7.8056180237940576e-01  8.3154627856618835e-01  8.8158534152272983e-01  8.5814281593656128e-01  7.7000559164928162e-01  6.6915596484713413e-01  6.2885144472074228e-01  6.7868125542708357e-01  7.6866184671449456e-01  8.1677662120178351e-01  </DataArray> 
</PointData> 
</Piece>
</UnstructuredGrid>
</VTKFile>