<?xml version="1.0"?>
<VTKFile type="UnstructuredGrid"  version="0.1"  >
<UnstructuredGrid>
<Piece  NumberOfPoints="72" NumberOfCells="112">
<Points>
<DataArray  type="Float64"  NumberOfComponents="3"  format="ascii">0 0 0  1 0 0  2 0 0  3 0 0  4 0 0  5 0 0  6 0 0  7 0 0  0 1 0  1 1 0  2 1 0  3 1 0  4 1 0  5 1 0  6 1 0  7 1 0  0 2 0  1 2 0  2 2 0  3 2 0  4 2 0  5 2 0  6 2 0  7 2 0  0 3 0  1 3 0  2 3 0  3 3 0  4 3 0  5 3 0  6 3 0  7 3 0  0 4 0  1 4 0  2 4 0  3 4 0  4 4 0  5 4 0  6 4 0  7 4 0  0 5 0  1 5 0  2 5 0  3 5 0  4 5 0  5 5 0  6 5 0  7 5 0  0 6 0  1 6 0  2 6 0  3 6 0  4 6 0  5 6 0  6 6 0  7 6 0  0 7 0  1 7 0  2 7 0  3 7 0  4 7 0  5 7 0  6 7 0  7 7 0  0 8 0  1 8 0  2 8 0  3 8 0  4 8 0  5 8 0  6 8 0  7 8 0  </DataArray>
</Points>
<Cells>
<DataArray  type="UInt32"  Name="connectivity"  format="ascii">0 8 9  0 1 9  1 9 10  1 2 10  2 10 11  2 3 11  3 11 12  3 4 12  4 12 13  4 5 13  5 13 14  5 6 14  6 14 15  6 7 15  8 16 17  8 9 17  9 17 18  9 10 18  10 18 19  10 11 19  11 19 20  11 12 20  12 20 21  12 13 21  13 21 22  13 14 22  14 22 23  14 15 23  16 24 25  16 17 25  17 25 26  17 18 26  18 26 27  18 19 27  19 27 28  19 20 28  20 28 29  20 21 29  21 29 30  21 22 30  22 30 31  22 23 31  24 32 33  24 25 33  25 33 34  25 26 34  26 34 35  26 27 35  27 35 36  27 28 36  28 36 37  28 29 37  29 37 38  29 30 38  30 38 39  30 31 39  32 40 41  32 33 41  33 41 42  33 34 42  34 42 43  34 35 43  35 43 44  35 36 44  36 44 45  36 37 45  37 45 46  37 38 46  38 46 47  38 39 47  40 48 49  40 41 49  41 49 50  41 42 50  42 50 51  42 43 51  43 51 52  43 44 52  44 52 53  44 45 53  45 53 54  45 46 54  46 54 55  46 47 55  48 56 57  48 49 57  49 57 58  49 50 58  50 58 59  50 51 59  51 59 60  51 52 60  52 60 61  52 53 61  53 61 62  53 54 62  54 62 63  54 55 63  56 64 65  56 57 65  57 65 66  57 58 66  58 66 67  58 59 67  59 67 68  59 60 68  60 68 69  60 61 69  61 69 70  61 62 70  62 70 71  62 63 71  </DataArray>
<DataArray  type="UInt32"  Name="offsets"  format="ascii">3 6 9 12 15 18 21 24 27 30 33 36 39 42 45 48 51 54 57 60 63 66 69 72 75 78 81 84 87 90 93 96 99 102 105 108 111 114 117 120 123 126 129 132 135 138 141 144 147 150 153 156 159 162 165 168 171 174 177 180 183 186 189 192 195 198 201 204 207 210 213 216 219 222 225 228 231 234 237 240 243 246 249 252 255 258 261 264 267 270 273 276 279 282 285 288 291 294 297 300 303 306 309 312 315 318 321 324 327 330 333 336 </DataArray>
<DataArray  type="UInt8"  Name="types"  format="ascii">5 5 5 5 5 5 5 5 5 5 5 5 5 5 5 5 5 5 5 5 5 5 5 5 5 5 5 5 5 5 5 5 5 5 5 5 5 5 5 5 5 5 5 5 5 5 5 5 5 5 5 5 5 5 5 5 5 5 5 5 5 5 5 5 5 5 5 5 5 5 5 5 5 5 5 5 5 5 5 5 5 5 5 5 5 5 5 5 5 5 5 5 5 5 5 5 5 5 5 5 5 5 5 5 5 5 5 5 5 5 5 5 </DataArray>
</Cells>
<PointData  Scalars="ControlVisualization"> 
<DataArray  type="Float64"  Name="ControlVisualization"  format="ascii">1.0348704571478884e+00  1.0012500409473961e+00  8.6327138870821041e-01  7.3808937056474799e-01  8.1720653170118895e-01  9.6979662854233195e-01  1.0127936540124742e+00  1.0010002520372285e+00  1.0274299088982473e+00  1.0384111998461196e+00  9.6900107343486552e-01  7.8041216643204236e-01  7.6252027550302715e-01  9.1925622293716458e-01  9.8606507112931596e-01  9.9507762473783490e-01  9.4039053102154213e-01  9.9736118366448401e-01  1.1910072207822102e+00  1.1849120144756720e+00  1.0747350961176034e+00  1.0061681861151679e+00  9.4644837802801196e-01  9.3729077703439490e-01  9.7195947998669174e-01  9.7806311832545056e-01  1.2772115051872439e+00  1.5528409651201029e+00  1.4941447473499199e+00  1.2234436224883383e+00  9.8495264269602945e-01  9.3094612681709021e-01  1.0091912459499301e+00  9.9115175054604387e-01  1.1307722988641411e+00  1.4707534397481581e+00  1.5475830460925515e+00  1.3182342359529089e+00  1.0607141026768856e+00  9.8191084322118394e-01  9.9885715678709397e-01  9.8268642897086456e-01  9.3814234647873240e-01  1.0829293269596054e+00  1.2043836171338742e+00  1.1430770831482229e+00  1.0188492381332976e+00  9.8766898334103315e-01  9.7802988551424919e-01  9.5088612761446734e-01  8.4387554837406242e-01  7.8283859448346804e-01  8.1734819841306650e-01  8.8054557802296185e-01  9.1439540347167902e-01  9.4974777784112152e-01  9.7430310422678046e-01  9.3592226840928450e-01  8.3775900611706022e-01  7.2117691279955676e-01  6.7948161738870239e-01  7.5176096946086379e-01  8.6382113100590951e-01  9.3786600788989483e-01  9.9645144508803041e-01  9.7152497994046705e-01  9.1986749629934095e-01  8.4278251078978128e-01  7.9371014438260012e-01  8.1883848490174205e-01  8.9742118169618923e-01  9.6277063054981171e-01  </DataArray> 
</PointData> 
</Piece>
</UnstructuredGrid>
</VTKFile>