<?xml version="1.0"?>
<VTKFile type="UnstructuredGrid"  version="0.1"  >
<UnstructuredGrid>
<Piece  NumberOfPoints="72" NumberOfCells="112">
<Points>
<DataArray  type="Float64"  NumberOfComponents="3"  format="ascii">0 0 0  1 0 0  2 0 0  3 0 0  4 0 0  5 0 0  6 0 0  7 0 0  0 1 0  1 1 0  2 1 0  3 1 0  4 1 0  5 1 0  6 1 0  7 1 0  0 2 0  1 2 0  2 2 0  3 2 0  4 2 0  5 2 0  6 2 0  7 2 0  0 3 0  1 3 0  2 3 0  3 3 0  4 3 0  5 3 0  6 3 0  7 3 0  0 4 0  1 4 0  2 4 0  3 4 0  4 4 0  5 4 0  6 4 0  7 4 0  0 5 0  1 5 0  2 5 0  3 5 0  4 5 0  5 5 0  6 5 0  7 5 0  0 6 0  1 6 0  2 6 0  3 6 0  4 6 0  5 6 0  6 6 0  7 6 0  0 7 0  1 7 0  2 7 0  3 7 0  4 7 0  5 7 0  6 7 0  7 7 0  0 8 0  1 8 0  2 8 0  3 8 0  4 8 0  5 8 0  6 8 0  7 8 0  </DataArray>
</Points>
<Cells>
<DataArray  type="UInt32"  Name="connectivity"  format="ascii">0 8 9  0 1 9  1 9 10  1 2 10  2 10 11  2 3 11  3 11 12  3 4 12  4 12 13  4 5 13  5 13 14  5 6 14  6 14 15  6 7 15  8 16 17  8 9 17  9 17 18  9 10 18  10 18 19  10 11 19  11 19 20  11 12 20  12 20 21  12 13 21  13 21 22  13 14 22  14 22 23  14 15 23  16 24 25  16 17 25  17 25 26  17 18 26  18 26 27  18 19 27  19 27 28  19 20 28  20 28 29  20 21 29  21 29 30  21 22 30  22 30 31  22 23 31  24 32 33  24 25 33  25 33 34  25 26 34  26 34 35  26 27 35  27 35 36  27 28 36  28 36 37  28 29 37  29 37 38  29 30 38  30 38 39  30 31 39  32 40 41  32 33 41  33 41 42  33 34 42  34 42 43  34 35 43  35 43 44  35 36 44  36 44 45  36 37 45  37 45 46  37 38 46  38 46 47  38 39 47  40 48 49  40 41 49  41 49 50  41 42 50  42 50 51  42 43 51  43 51 52  43 44 52  44 52 53  44 45 53  45 53 54  45 46 54  46 54 55  46 47 55  48 56 57  48 49 57  49 57 58  49 50 58  50 58 59  50 51 59  51 59 60  51 52 60  52 60 61  52 53 61  53 61 62  53 54 62  54 62 63  54 55 63  56 64 65  56 57 65  57 65 66  57 58 66  58 66 67  58 59 67  59 67 68  59 60 68  60 68 69  60 61 69  61 69 70  61 62 70  62 70 71  62 63 71  </DataArray>
<DataArray  type="UInt32"  Name="offsets"  format="ascii">3 6 9 12 15 18 21 24 27 30 33 36 39 42 45 48 51 54 57 60 63 66 69 72 75 78 81 84 87 90 93 96 99 102 105 108 111 114 117 120 123 126 129 132 135 138 141 144 147 150 153 156 159 162 165 168 171 174 177 180 183 186 189 192 195 198 201 204 207 210 213 216 219 222 225 228 231 234 237 240 243 246 249 252 255 258 261 264 267 270 273 276 279 282 285 288 291 294 297 300 303 306 309 312 315 318 321 324 327 330 333 336 </DataArray>
<DataArray  type="UInt8"  Name="types"  format="ascii">5 5 5 5 5 5 5 5 5 5 5 5 5 5 5 5 5 5 5 5 5 5 5 5 5 5 5 5 5 5 5 5 5 5 5 5 5 5 5 5 5 5 5 5 5 5 5 5 5 5 5 5 5 5 5 5 5 5 5 5 5 5 5 5 5 5 5 5 5 5 5 5 5 5 5 5 5 5 5 5 5 5 5 5 5 5 5 5 5 5 5 5 5 5 5 5 5 5 5 5 5 5 5 5 5 5 5 5 5 5 5 5 </DataArray>
</Cells>
<PointData  Scalars="ControlVisualization"> 
<DataArray  type="Float64"  Name="ControlVisualization"  format="ascii">1.1511009124239686e+00  1.0652949339307503e+00  8.2376504024532693e-01  5.5344932569181093e-01  6.2476031329700332e-01  8.2339239946287923e-01  8.8199061277740931e-01  8.9290581605196051e-01  1.0484484599731647e+00  1.0512530104365005e+00  9.2715727302041451e-01  6.9682079121382778e-01  6.7032581148404502e-01  8.3068027268411071e-01  9.0091282702361331e-01  9.0372245536417162e-01  8.9121283705398846e-01  9.6833818016311879e-01  1.1245766506916453e+00  1.0862642856189035e+00  9.7008346090904163e-01  9.1195061029853253e-01  8.9533664990978590e-01  8.9168022583406070e-01  9.5570403602558540e-01  9.5764651358949038e-01  1.2344477569149588e+00  1.4687377478789960e+00  1.3910921223636923e+00  1.1337712935811928e+00  9.4251356701094346e-01  8.8653823639844653e-01  1.0427259793734851e+00  1.0015403740894486e+00  1.1229943999011180e+00  1.4117901428680806e+00  1.4588965651847388e+00  1.2453839931136961e+00  1.0427057432640934e+00  9.7777915993053444e-01  1.0265943304998189e+00  9.8326248830025043e-01  9.3167634140324240e-01  1.0369651306857688e+00  1.1214937213737481e+00  1.0657180531853747e+00  1.0029550080172491e+00  1.0008060403409453e+00  9.5896910541738278e-01  9.2118076055626485e-01  8.1687334005903844e-01  7.5558541256971545e-01  7.6358943573901039e-01  8.0142363302678665e-01  8.6076598953042904e-01  9.0832352016052231e-01  9.0503402839167524e-01  8.7375579408426585e-01  7.7496904118384824e-01  6.7647327194860796e-01  6.4254096172866637e-01  6.9233783670004057e-01  7.8041709504830026e-01  8.3136237258272316e-01  8.8160645960162420e-01  8.5805512751231305e-01  7.6980788653094856e-01  6.6899119510264082e-01  6.2875238885467233e-01  6.7857398861302776e-01  7.6844677184239629e-01  8.1642589150676315e-01  </DataArray> 
</PointData> 
</Piece>
</UnstructuredGrid>
</VTKFile>