<?xml version="1.0"?>
<VTKFile type="UnstructuredGrid"  version="0.1"  >
<UnstructuredGrid>
<Piece  NumberOfPoints="72" NumberOfCells="112">
<Points>
<DataArray  type="Float64"  NumberOfComponents="3"  format="ascii">0 0 0  1 0 0  2 0 0  3 0 0  4 0 0  5 0 0  6 0 0  7 0 0  0 1 0  1 1 0  2 1 0  3 1 0  4 1 0  5 1 0  6 1 0  7 1 0  0 2 0  1 2 0  2 2 0  3 2 0  4 2 0  5 2 0  6 2 0  7 2 0  0 3 0  1 3 0  2 3 0  3 3 0  4 3 0  5 3 0  6 3 0  7 3 0  0 4 0  1 4 0  2 4 0  3 4 0  4 4 0  5 4 0  6 4 0  7 4 0  0 5 0  1 5 0  2 5 0  3 5 0  4 5 0  5 5 0  6 5 0  7 5 0  0 6 0  1 6 0  2 6 0  3 6 0  4 6 0  5 6 0  6 6 0  7 6 0  0 7 0  1 7 0  2 7 0  3 7 0  4 7 0  5 7 0  6 7 0  7 7 0  0 8 0  1 8 0  2 8 0  3 8 0  4 8 0  5 8 0  6 8 0  7 8 0  </DataArray>
</Points>
<Cells>
<DataArray  type="UInt32"  Name="connectivity"  format="ascii">0 8 9  0 1 9  1 9 10  1 2 10  2 10 11  2 3 11  3 11 12  3 4 12  4 12 13  4 5 13  5 13 14  5 6 14  6 14 15  6 7 15  8 16 17  8 9 17  9 17 18  9 10 18  10 18 19  10 11 19  11 19 20  11 12 20  12 20 21  12 13 21  13 21 22  13 14 22  14 22 23  14 15 23  16 24 25  16 17 25  17 25 26  17 18 26  18 26 27  18 19 27  19 27 28  19 20 28  20 28 29  20 21 29  21 29 30  21 22 30  22 30 31  22 23 31  24 32 33  24 25 33  25 33 34  25 26 34  26 34 35  26 27 35  27 35 36  27 28 36  28 36 37  28 29 37  29 37 38  29 30 38  30 38 39  30 31 39  32 40 41  32 33 41  33 41 42  33 34 42  34 42 43  34 35 43  35 43 44  35 36 44  36 44 45  36 37 45  37 45 46  37 38 46  38 46 47  38 39 47  40 48 49  40 41 49  41 49 50  41 42 50  42 50 51  42 43 51  43 51 52  43 44 52  44 52 53  44 45 53  45 53 54  45 46 54  46 54 55  46 47 55  48 56 57  48 49 57  49 57 58  49 50 58  50 58 59  50 51 59  51 59 60  51 52 60  52 60 61  52 53 61  53 61 62  53 54 62  54 62 63  54 55 63  56 64 65  56 57 65  57 65 66  57 58 66  58 66 67  58 59 67  59 67 68  59 60 68  60 68 69  60 61 69  61 69 70  61 62 70  62 70 71  62 63 71  </DataArray>
<DataArray  type="UInt32"  Name="offsets"  format="ascii">3 6 9 12 15 18 21 24 27 30 33 36 39 42 45 48 51 54 57 60 63 66 69 72 75 78 81 84 87 90 93 96 99 102 105 108 111 114 117 120 123 126 129 132 135 138 141 144 147 150 153 156 159 162 165 168 171 174 177 180 183 186 189 192 195 198 201 204 207 210 213 216 219 222 225 228 231 234 237 240 243 246 249 252 255 258 261 264 267 270 273 276 279 282 285 288 291 294 297 300 303 306 309 312 315 318 321 324 327 330 333 336 </DataArray>
<DataArray  type="UInt8"  Name="types"  format="ascii">5 5 5 5 5 5 5 5 5 5 5 5 5 5 5 5 5 5 5 5 5 5 5 5 5 5 5 5 5 5 5 5 5 5 5 5 5 5 5 5 5 5 5 5 5 5 5 5 5 5 5 5 5 5 5 5 5 5 5 5 5 5 5 5 5 5 5 5 5 5 5 5 5 5 5 5 5 5 5 5 5 5 5 5 5 5 5 5 5 5 5 5 5 5 5 5 5 5 5 5 5 5 5 5 5 5 5 5 5 5 5 5 </DataArray>
</Cells>
<PointData  Scalars="ControlVisualization"> 
<DataArray  type="Float64"  Name="ControlVisualization"  format="ascii">1.1510375318027277e+00  1.0652920554666008e+00  8.2375179686605893e-01  5.5335113776285705e-01  6.2463787522251890e-01  8.2323261909705658e-01  8.8190889860725630e-01  8.9298284645374237e-01  1.0484397781992567e+00  1.0512270307347504e+00  9.2715671212126227e-01  6.9679340493546893e-01  6.7028469872051477e-01  8.3060920378306213e-01  9.0082840547511689e-01  9.0384218530426974e-01  8.9128552689219398e-01  9.6834409828588364e-01  1.1245727725117809e+00  1.0862419633854543e+00  9.7008696940748251e-01  9.1192161616465139e-01  8.9546586809354911e-01  8.9174284412685179e-01  9.5578913983281721e-01  9.5766232392041484e-01  1.2342825005187605e+00  1.4687721419667472e+00  1.3909966255511554e+00  1.1339069848291368e+00  9.4257131122930471e-01  8.8654966161119242e-01  1.0427686316173281e+00  1.0015391978222095e+00  1.1230152771485333e+00  1.4115542808031367e+00  1.4590444388806125e+00  1.2453808182545565e+00  1.0427612779557838e+00  9.7781187912015100e-01  1.0266116883238134e+00  9.8327802306698586e-01  9.3168517107654147e-01  1.0370151931794795e+00  1.1214308753484401e+00  1.0657853785177782e+00  1.0029950797399680e+00  1.0008129526868774e+00  9.5892494019200392e-01  9.2121224055454198e-01  8.1692824475167169e-01  7.5564061188618381e-01  7.6363112296682389e-01  8.0144958955373302e-01  8.6079558909126430e-01  9.0833098358281583e-01  9.0498923846808810e-01  8.7379330566413604e-01  7.7503577677046565e-01  6.7653368978031447e-01  6.4257120601788398e-01  6.9236042970820388e-01  7.8048533431312461e-01  8.3144797313839724e-01  8.8153533093791026e-01  8.5806263601431887e-01  7.6989184785192977e-01  6.6908654986663474e-01  6.2881432437569751e-01  6.7862417334366520e-01  7.6853994980452545e-01  8.1659395081278274e-01  </DataArray> 
</PointData> 
</Piece>
</UnstructuredGrid>
</VTKFile>