<?xml version="1.0"?>
<VTKFile type="UnstructuredGrid"  version="0.1"  >
<UnstructuredGrid>
<Piece  NumberOfPoints="72" NumberOfCells="112">
<Points>
<DataArray  type="Float64"  NumberOfComponents="3"  format="ascii">0 0 0  1 0 0  2 0 0  3 0 0  4 0 0  5 0 0  6 0 0  7 0 0  0 1 0  1 1 0  2 1 0  3 1 0  4 1 0  5 1 0  6 1 0  7 1 0  0 2 0  1 2 0  2 2 0  3 2 0  4 2 0  5 2 0  6 2 0  7 2 0  0 3 0  1 3 0  2 3 0  3 3 0  4 3 0  5 3 0  6 3 0  7 3 0  0 4 0  1 4 0  2 4 0  3 4 0  4 4 0  5 4 0  6 4 0  7 4 0  0 5 0  1 5 0  2 5 0  3 5 0  4 5 0  5 5 0  6 5 0  7 5 0  0 6 0  1 6 0  2 6 0  3 6 0  4 6 0  5 6 0  6 6 0  7 6 0  0 7 0  1 7 0  2 7 0  3 7 0  4 7 0  5 7 0  6 7 0  7 7 0  0 8 0  1 8 0  2 8 0  3 8 0  4 8 0  5 8 0  6 8 0  7 8 0  </DataArray>
</Points>
<Cells>
<DataArray  type="UInt32"  Name="connectivity"  format="ascii">0 8 9  0 1 9  1 9 10  1 2 10  2 10 11  2 3 11  3 11 12  3 4 12  4 12 13  4 5 13  5 13 14  5 6 14  6 14 15  6 7 15  8 16 17  8 9 17  9 17 18  9 10 18  10 18 19  10 11 19  11 19 20  11 12 20  12 20 21  12 13 21  13 21 22  13 14 22  14 22 23  14 15 23  16 24 25  16 17 25  17 25 26  17 18 26  18 26 27  18 19 27  19 27 28  19 20 28  20 28 29  20 21 29  21 29 30  21 22 30  22 30 31  22 23 31  24 32 33  24 25 33  25 33 34  25 26 34  26 34 35  26 27 35  27 35 36  27 28 36  28 36 37  28 29 37  29 37 38  29 30 38  30 38 39  30 31 39  32 40 41  32 33 41  33 41 42  33 34 42  34 42 43  34 35 43  35 43 44  35 36 44  36 44 45  36 37 45  37 45 46  37 38 46  38 46 47  38 39 47  40 48 49  40 41 49  41 49 50  41 42 50  42 50 51  42 43 51  43 51 52  43 44 52  44 52 53  44 45 53  45 53 54  45 46 54  46 54 55  46 47 55  48 56 57  48 49 57  49 57 58  49 50 58  50 58 59  50 51 59  51 59 60  51 52 60  52 60 61  52 53 61  53 61 62  53 54 62  54 62 63  54 55 63  56 64 65  56 57 65  57 65 66  57 58 66  58 66 67  58 59 67  59 67 68  59 60 68  60 68 69  60 61 69  61 69 70  61 62 70  62 70 71  62 63 71  </DataArray>
<DataArray  type="UInt32"  Name="offsets"  format="ascii">3 6 9 12 15 18 21 24 27 30 33 36 39 42 45 48 51 54 57 60 63 66 69 72 75 78 81 84 87 90 93 96 99 102 105 108 111 114 117 120 123 126 129 132 135 138 141 144 147 150 153 156 159 162 165 168 171 174 177 180 183 186 189 192 195 198 201 204 207 210 213 216 219 222 225 228 231 234 237 240 243 246 249 252 255 258 261 264 267 270 273 276 279 282 285 288 291 294 297 300 303 306 309 312 315 318 321 324 327 330 333 336 </DataArray>
<DataArray  type="UInt8"  Name="types"  format="ascii">5 5 5 5 5 5 5 5 5 5 5 5 5 5 5 5 5 5 5 5 5 5 5 5 5 5 5 5 5 5 5 5 5 5 5 5 5 5 5 5 5 5 5 5 5 5 5 5 5 5 5 5 5 5 5 5 5 5 5 5 5 5 5 5 5 5 5 5 5 5 5 5 5 5 5 5 5 5 5 5 5 5 5 5 5 5 5 5 5 5 5 5 5 5 5 5 5 5 5 5 5 5 5 5 5 5 5 5 5 5 5 5 </DataArray>
</Cells>
<PointData  Scalars="ControlVisualization"> 
<DataArray  type="Float64"  Name="ControlVisualization"  format="ascii">1.1471823884871011e+00  1.0868509573755858e+00  8.5959172435449138e-01  5.9139552548257757e-01  6.7085051483571856e-01  8.9141420280114958e-01  9.5286080873097267e-01  9.5918974068209439e-01  1.0511420228180970e+00  1.0692113195827235e+00  9.6063407744050533e-01  7.3987576672606381e-01  7.2304153985138564e-01  8.8950867684835255e-01  9.5271298710576191e-01  9.5276409462051426e-01  9.1532074622002513e-01  9.9573080802847480e-01  1.1563225216689017e+00  1.1261914289974355e+00  1.0160095127888356e+00  9.5677311258893216e-01  9.3274994317102733e-01  9.2457348994812638e-01  9.8075416707214980e-01  9.8551706738621070e-01  1.2653889600438746e+00  1.5040041006993954e+00  1.4294113460115905e+00  1.1734324531307765e+00  9.8031128909228449e-01  9.1421018786233288e-01  1.0605729460069095e+00  1.0239876238546191e+00  1.1512582178728998e+00  1.4439192843077702e+00  1.4936852696982554e+00  1.2799385783512245e+00  1.0770061791273104e+00  1.0020407277008221e+00  1.0423284656224270e+00  1.0014778489498437e+00  9.5334480844080371e-01  1.0636422437658757e+00  1.1502681161934969e+00  1.0927934102397963e+00  1.0290528534723278e+00  1.0235415627541131e+00  9.7284345178956333e-01  9.3502820795796115e-01  8.3116498145213469e-01  7.7282398488267201e-01  7.8522167049192193e-01  8.2371510850171314e-01  8.8163333746278216e-01  9.2770232170408495e-01  9.1153440382675199e-01  8.8446724248831865e-01  7.9097204555753320e-01  6.9681755973006776e-01  6.6581286176828991e-01  7.1489205981497661e-01  7.9771730193946266e-01  8.4251737006133987e-01  8.8389082040784828e-01  8.6627518395137226e-01  7.8510296554327097e-01  6.9017305199484924e-01  6.5300993796679041e-01  7.0123216953390688e-01  7.8258557193880052e-01  8.2042224081213977e-01  </DataArray> 
</PointData> 
</Piece>
</UnstructuredGrid>
</VTKFile>