<?xml version="1.0"?>
<VTKFile type="UnstructuredGrid"  version="0.1"  >
<UnstructuredGrid>
<Piece  NumberOfPoints="72" NumberOfCells="112">
<Points>
<DataArray  type="Float64"  NumberOfComponents="3"  format="ascii">0 0 0  1 0 0  2 0 0  3 0 0  4 0 0  5 0 0  6 0 0  7 0 0  0 1 0  1 1 0  2 1 0  3 1 0  4 1 0  5 1 0  6 1 0  7 1 0  0 2 0  1 2 0  2 2 0  3 2 0  4 2 0  5 2 0  6 2 0  7 2 0  0 3 0  1 3 0  2 3 0  3 3 0  4 3 0  5 3 0  6 3 0  7 3 0  0 4 0  1 4 0  2 4 0  3 4 0  4 4 0  5 4 0  6 4 0  7 4 0  0 5 0  1 5 0  2 5 0  3 5 0  4 5 0  5 5 0  6 5 0  7 5 0  0 6 0  1 6 0  2 6 0  3 6 0  4 6 0  5 6 0  6 6 0  7 6 0  0 7 0  1 7 0  2 7 0  3 7 0  4 7 0  5 7 0  6 7 0  7 7 0  0 8 0  1 8 0  2 8 0  3 8 0  4 8 0  5 8 0  6 8 0  7 8 0  </DataArray>
</Points>
<Cells>
<DataArray  type="UInt32"  Name="connectivity"  format="ascii">0 8 9  0 1 9  1 9 10  1 2 10  2 10 11  2 3 11  3 11 12  3 4 12  4 12 13  4 5 13  5 13 14  5 6 14  6 14 15  6 7 15  8 16 17  8 9 17  9 17 18  9 10 18  10 18 19  10 11 19  11 19 20  11 12 20  12 20 21  12 13 21  13 21 22  13 14 22  14 22 23  14 15 23  16 24 25  16 17 25  17 25 26  17 18 26  18 26 27  18 19 27  19 27 28  19 20 28  20 28 29  20 21 29  21 29 30  21 22 30  22 30 31  22 23 31  24 32 33  24 25 33  25 33 34  25 26 34  26 34 35  26 27 35  27 35 36  27 28 36  28 36 37  28 29 37  29 37 38  29 30 38  30 38 39  30 31 39  32 40 41  32 33 41  33 41 42  33 34 42  34 42 43  34 35 43  35 43 44  35 36 44  36 44 45  36 37 45  37 45 46  37 38 46  38 46 47  38 39 47  40 48 49  40 41 49  41 49 50  41 42 50  42 50 51  42 43 51  43 51 52  43 44 52  44 52 53  44 45 53  45 53 54  45 46 54  46 54 55  46 47 55  48 56 57  48 49 57  49 57 58  49 50 58  50 58 59  50 51 59  51 59 60  51 52 60  52 60 61  52 53 61  53 61 62  53 54 62  54 62 63  54 55 63  56 64 65  56 57 65  57 65 66  57 58 66  58 66 67  58 59 67  59 67 68  59 60 68  60 68 69  60 61 69  61 69 70  61 62 70  62 70 71  62 63 71  </DataArray>
<DataArray  type="UInt32"  Name="offsets"  format="ascii">3 6 9 12 15 18 21 24 27 30 33 36 39 42 45 48 51 54 57 60 63 66 69 72 75 78 81 84 87 90 93 96 99 102 105 108 111 114 117 120 123 126 129 132 135 138 141 144 147 150 153 156 159 162 165 168 171 174 177 180 183 186 189 192 195 198 201 204 207 210 213 216 219 222 225 228 231 234 237 240 243 246 249 252 255 258 261 264 267 270 273 276 279 282 285 288 291 294 297 300 303 306 309 312 315 318 321 324 327 330 333 336 </DataArray>
<DataArray  type="UInt8"  Name="types"  format="ascii">5 5 5 5 5 5 5 5 5 5 5 5 5 5 5 5 5 5 5 5 5 5 5 5 5 5 5 5 5 5 5 5 5 5 5 5 5 5 5 5 5 5 5 5 5 5 5 5 5 5 5 5 5 5 5 5 5 5 5 5 5 5 5 5 5 5 5 5 5 5 5 5 5 5 5 5 5 5 5 5 5 5 5 5 5 5 5 5 5 5 5 5 5 5 5 5 5 5 5 5 5 5 5 5 5 5 5 5 5 5 5 5 </DataArray>
</Cells>
<PointData  Scalars="ControlVisualization"> 
<DataArray  type="Float64"  Name="ControlVisualization"  format="ascii">1.0579476661208769e+00  1.0276371186365296e+00  8.5896435454650810e-01  6.6905742399077406e-01  7.5747867471114561e-01  9.4165792754314970e-01  9.9379042112355487e-01  1.0009537201263825e+00  1.0238257741009322e+00  1.0424068723847162e+00  9.7170871929885450e-01  7.9295865390312092e-01  7.7531802511345871e-01  9.1824239524663631e-01  9.8061819331909639e-01  9.8615669487919499e-01  9.2428210812844269e-01  9.9111005081436632e-01  1.1753758251380679e+00  1.1835804621578250e+00  1.0839541711270793e+00  1.0061689966570317e+00  9.6135285702290840e-01  9.4567528386645894e-01  9.7810954809905681e-01  9.8837518283554204e-01  1.2872882768269076e+00  1.5631959541400771e+00  1.5079704600109893e+00  1.2310183822358816e+00  1.0033889621286229e+00  9.3350678798725362e-01  1.0309139428935770e+00  1.0179176777586911e+00  1.1700452197218005e+00  1.4935258915792966e+00  1.5622330579581662e+00  1.3316068713218703e+00  1.0876872516364973e+00  9.9973157728664264e-01  1.0118027532842313e+00  9.9337310270101298e-01  9.6929065314559126e-01  1.0997592383535626e+00  1.2000446668979947e+00  1.1367946536543605e+00  1.0407842053234631e+00  1.0112852463364832e+00  9.7417795463047552e-01  9.4197703440753200e-01  8.4538831290391436e-01  7.9247108399652189e-01  8.0965902408665480e-01  8.5499553774794002e-01  9.0973998895899433e-01  9.5096295253404295e-01  9.6334398131558174e-01  9.2319459718957431e-01  8.2007337007310543e-01  7.1747859697766603e-01  6.8549388314721282e-01  7.4691059604674315e-01  8.5105236878802648e-01  9.1965671559270235e-01  9.8799338837536421e-01  9.5238303396327806e-01  8.7340841954529358e-01  7.7155131965152224e-01  7.2251738853115000e-01  7.7097777675483770e-01  8.7170861043903758e-01  9.4670253250503011e-01  </DataArray> 
</PointData> 
</Piece>
</UnstructuredGrid>
</VTKFile>