<?xml version="1.0"?>
<VTKFile type="UnstructuredGrid"  version="0.1"  >
<UnstructuredGrid>
<Piece  NumberOfPoints="72" NumberOfCells="112">
<Points>
<DataArray  type="Float64"  NumberOfComponents="3"  format="ascii">0 0 0  1 0 0  2 0 0  3 0 0  4 0 0  5 0 0  6 0 0  7 0 0  0 1 0  1 1 0  2 1 0  3 1 0  4 1 0  5 1 0  6 1 0  7 1 0  0 2 0  1 2 0  2 2 0  3 2 0  4 2 0  5 2 0  6 2 0  7 2 0  0 3 0  1 3 0  2 3 0  3 3 0  4 3 0  5 3 0  6 3 0  7 3 0  0 4 0  1 4 0  2 4 0  3 4 0  4 4 0  5 4 0  6 4 0  7 4 0  0 5 0  1 5 0  2 5 0  3 5 0  4 5 0  5 5 0  6 5 0  7 5 0  0 6 0  1 6 0  2 6 0  3 6 0  4 6 0  5 6 0  6 6 0  7 6 0  0 7 0  1 7 0  2 7 0  3 7 0  4 7 0  5 7 0  6 7 0  7 7 0  0 8 0  1 8 0  2 8 0  3 8 0  4 8 0  5 8 0  6 8 0  7 8 0  </DataArray>
</Points>
<Cells>
<DataArray  type="UInt32"  Name="connectivity"  format="ascii">0 8 9  0 1 9  1 9 10  1 2 10  2 10 11  2 3 11  3 11 12  3 4 12  4 12 13  4 5 13  5 13 14  5 6 14  6 14 15  6 7 15  8 16 17  8 9 17  9 17 18  9 10 18  10 18 19  10 11 19  11 19 20  11 12 20  12 20 21  12 13 21  13 21 22  13 14 22  14 22 23  14 15 23  16 24 25  16 17 25  17 25 26  17 18 26  18 26 27  18 19 27  19 27 28  19 20 28  20 28 29  20 21 29  21 29 30  21 22 30  22 30 31  22 23 31  24 32 33  24 25 33  25 33 34  25 26 34  26 34 35  26 27 35  27 35 36  27 28 36  28 36 37  28 29 37  29 37 38  29 30 38  30 38 39  30 31 39  32 40 41  32 33 41  33 41 42  33 34 42  34 42 43  34 35 43  35 43 44  35 36 44  36 44 45  36 37 45  37 45 46  37 38 46  38 46 47  38 39 47  40 48 49  40 41 49  41 49 50  41 42 50  42 50 51  42 43 51  43 51 52  43 44 52  44 52 53  44 45 53  45 53 54  45 46 54  46 54 55  46 47 55  48 56 57  48 49 57  49 57 58  49 50 58  50 58 59  50 51 59  51 59 60  51 52 60  52 60 61  52 53 61  53 61 62  53 54 62  54 62 63  54 55 63  56 64 65  56 57 65  57 65 66  57 58 66  58 66 67  58 59 67  59 67 68  59 60 68  60 68 69  60 61 69  61 69 70  61 62 70  62 70 71  62 63 71  </DataArray>
<DataArray  type="UInt32"  Name="offsets"  format="ascii">3 6 9 12 15 18 21 24 27 30 33 36 39 42 45 48 51 54 57 60 63 66 69 72 75 78 81 84 87 90 93 96 99 102 105 108 111 114 117 120 123 126 129 132 135 138 141 144 147 150 153 156 159 162 165 168 171 174 177 180 183 186 189 192 195 198 201 204 207 210 213 216 219 222 225 228 231 234 237 240 243 246 249 252 255 258 261 264 267 270 273 276 279 282 285 288 291 294 297 300 303 306 309 312 315 318 321 324 327 330 333 336 </DataArray>
<DataArray  type="UInt8"  Name="types"  format="ascii">5 5 5 5 5 5 5 5 5 5 5 5 5 5 5 5 5 5 5 5 5 5 5 5 5 5 5 5 5 5 5 5 5 5 5 5 5 5 5 5 5 5 5 5 5 5 5 5 5 5 5 5 5 5 5 5 5 5 5 5 5 5 5 5 5 5 5 5 5 5 5 5 5 5 5 5 5 5 5 5 5 5 5 5 5 5 5 5 5 5 5 5 5 5 5 5 5 5 5 5 5 5 5 5 5 5 5 5 5 5 5 5 </DataArray>
</Cells>
<PointData  Scalars="ControlVisualization"> 
<DataArray  type="Float64"  Name="ControlVisualization"  format="ascii">1.1472831587073180e+00  1.0744438812825390e+00  8.3347101008597235e-01  5.6106546558731685e-01  6.3271271904553539e-01  8.3949719778712817e-01  9.0750867948925384e-01  9.3645824482651796e-01  1.0554413550579569e+00  1.0581202539529473e+00  9.4013735561890299e-01  7.1021482791060231e-01  6.8372902975966277e-01  8.4536378411018764e-01  9.1720170708763293e-01  9.2578306552793665e-01  9.0692805091788209e-01  9.7713303934341489e-01  1.1371166180188299e+00  1.1015289388334826e+00  9.8443598247474406e-01  9.2260592863122837e-01  9.0546428929370892e-01  9.0583676593133056e-01  9.6915317522725597e-01  9.6526264780320981e-01  1.2416305075540037e+00  1.4797748827846826e+00  1.4023920504028453e+00  1.1428960186601596e+00  9.5208623348121868e-01  9.0078185721787218e-01  1.0510461309048229e+00  1.0041888822349063e+00  1.1249669867748759e+00  1.4195509568464686e+00  1.4701530953817108e+00  1.2543223995260619e+00  1.0500512897106680e+00  9.8451916882790502e-01  1.0237214806152148e+00  9.8214793679009127e-01  9.3276444122396440e-01  1.0449284914457602e+00  1.1339453539838835e+00  1.0760466868220744e+00  1.0076426841202333e+00  9.9930595149215318e-01  9.4420539004765436e-01  9.1759605556274526e-01  8.2162994732530270e-01  7.6533631125806867e-01  7.7619539062506648e-01  8.1125169105345840e-01  8.6210747478065941e-01  9.0053312855876433e-01  8.8943687446159780e-01  8.7041543125847776e-01  7.8059339930622473e-01  6.8501660760166427e-01  6.5142247736346737e-01  6.9926559904852825e-01  7.8259531610167343e-01  8.2941018895598784e-01  8.6794149632905870e-01  8.5503641527484164e-01  7.7566943411584277e-01  6.7715623056201768e-01  6.3632432242925874e-01  6.8489306367065150e-01  7.7325288937449288e-01  8.2317447947111566e-01  </DataArray> 
</PointData> 
</Piece>
</UnstructuredGrid>
</VTKFile>