<?xml version="1.0"?>
<VTKFile type="UnstructuredGrid"  version="0.1"  >
<UnstructuredGrid>
<Piece  NumberOfPoints="72" NumberOfCells="112">
<Points>
<DataArray  type="Float64"  NumberOfComponents="3"  format="ascii">0 0 0  1 0 0  2 0 0  3 0 0  4 0 0  5 0 0  6 0 0  7 0 0  0 1 0  1 1 0  2 1 0  3 1 0  4 1 0  5 1 0  6 1 0  7 1 0  0 2 0  1 2 0  2 2 0  3 2 0  4 2 0  5 2 0  6 2 0  7 2 0  0 3 0  1 3 0  2 3 0  3 3 0  4 3 0  5 3 0  6 3 0  7 3 0  0 4 0  1 4 0  2 4 0  3 4 0  4 4 0  5 4 0  6 4 0  7 4 0  0 5 0  1 5 0  2 5 0  3 5 0  4 5 0  5 5 0  6 5 0  7 5 0  0 6 0  1 6 0  2 6 0  3 6 0  4 6 0  5 6 0  6 6 0  7 6 0  0 7 0  1 7 0  2 7 0  3 7 0  4 7 0  5 7 0  6 7 0  7 7 0  0 8 0  1 8 0  2 8 0  3 8 0  4 8 0  5 8 0  6 8 0  7 8 0  </DataArray>
</Points>
<Cells>
<DataArray  type="UInt32"  Name="connectivity"  format="ascii">0 8 9  0 1 9  1 9 10  1 2 10  2 10 11  2 3 11  3 11 12  3 4 12  4 12 13  4 5 13  5 13 14  5 6 14  6 14 15  6 7 15  8 16 17  8 9 17  9 17 18  9 10 18  10 18 19  10 11 19  11 19 20  11 12 20  12 20 21  12 13 21  13 21 22  13 14 22  14 22 23  14 15 23  16 24 25  16 17 25  17 25 26  17 18 26  18 26 27  18 19 27  19 27 28  19 20 28  20 28 29  20 21 29  21 29 30  21 22 30  22 30 31  22 23 31  24 32 33  24 25 33  25 33 34  25 26 34  26 34 35  26 27 35  27 35 36  27 28 36  28 36 37  28 29 37  29 37 38  29 30 38  30 38 39  30 31 39  32 40 41  32 33 41  33 41 42  33 34 42  34 42 43  34 35 43  35 43 44  35 36 44  36 44 45  36 37 45  37 45 46  37 38 46  38 46 47  38 39 47  40 48 49  40 41 49  41 49 50  41 42 50  42 50 51  42 43 51  43 51 52  43 44 52  44 52 53  44 45 53  45 53 54  45 46 54  46 54 55  46 47 55  48 56 57  48 49 57  49 57 58  49 50 58  50 58 59  50 51 59  51 59 60  51 52 60  52 60 61  52 53 61  53 61 62  53 54 62  54 62 63  54 55 63  56 64 65  56 57 65  57 65 66  57 58 66  58 66 67  58 59 67  59 67 68  59 60 68  60 68 69  60 61 69  61 69 70  61 62 70  62 70 71  62 63 71  </DataArray>
<DataArray  type="UInt32"  Name="offsets"  format="ascii">3 6 9 12 15 18 21 24 27 30 33 36 39 42 45 48 51 54 57 60 63 66 69 72 75 78 81 84 87 90 93 96 99 102 105 108 111 114 117 120 123 126 129 132 135 138 141 144 147 150 153 156 159 162 165 168 171 174 177 180 183 186 189 192 195 198 201 204 207 210 213 216 219 222 225 228 231 234 237 240 243 246 249 252 255 258 261 264 267 270 273 276 279 282 285 288 291 294 297 300 303 306 309 312 315 318 321 324 327 330 333 336 </DataArray>
<DataArray  type="UInt8"  Name="types"  format="ascii">5 5 5 5 5 5 5 5 5 5 5 5 5 5 5 5 5 5 5 5 5 5 5 5 5 5 5 5 5 5 5 5 5 5 5 5 5 5 5 5 5 5 5 5 5 5 5 5 5 5 5 5 5 5 5 5 5 5 5 5 5 5 5 5 5 5 5 5 5 5 5 5 5 5 5 5 5 5 5 5 5 5 5 5 5 5 5 5 5 5 5 5 5 5 5 5 5 5 5 5 5 5 5 5 5 5 5 5 5 5 5 5 </DataArray>
</Cells>
<PointData  Scalars="ControlVisualization"> 
<DataArray  type="Float64"  Name="ControlVisualization"  format="ascii">1.1508747219722026e+00  1.0652179736076368e+00  8.2385452755609290e-01  5.5349974825639292e-01  6.2478828020049326e-01  8.2324954868135558e-01  8.8185602995092083e-01  8.9282147142917490e-01  1.0483269108851592e+00  1.0511935135612744e+00  9.2729054947503753e-01  6.9694935331558616e-01  6.7038417289909713e-01  8.3062661494130141e-01  9.0083683387747115e-01  9.0381683997312456e-01  8.9142952125004504e-01  9.6847343018057597e-01  1.1247526418399445e+00  1.0864357900956214e+00  9.7026099538627630e-01  9.1204831295814492e-01  8.9555049186312929e-01  8.9173193512451221e-01  9.5591310916488081e-01  9.5780086871643189e-01  1.2343628988897790e+00  1.4688408421066728e+00  1.3911336195108095e+00  1.1339947338853580e+00  9.4254089201283675e-01  8.8639966603221632e-01  1.0427760098885597e+00  1.0015606394599466e+00  1.1230538302915409e+00  1.4115591482220904e+00  1.4591270086076844e+00  1.2454860268545167e+00  1.0427765466932275e+00  9.7774691361593880e-01  1.0266351427039850e+00  9.8332663668781506e-01  9.3175706954880100e-01  1.0370808375581753e+00  1.1215357986129619e+00  1.0659091251867430e+00  1.0030618875418458e+00  1.0008012394103647e+00  9.5898065113600750e-01  9.2129848980736539e-01  8.1704702088517578e-01  7.5574388547130900e-01  7.6371702698557442e-01  8.0156104344461943e-01  8.6089677464942527e-01  9.0839903843507086e-01  9.0504908162458120e-01  8.7387882653316340e-01  7.7514681976157873e-01  6.7658577266491815e-01  6.4257216709149445e-01  6.9242242165945822e-01  7.8062590333193960e-01  8.3161793039458620e-01  8.8161741013532779e-01  8.5817283670592048e-01  7.7003943417788689e-01  6.6917535688686247e-01  6.2886586463655658e-01  6.7874184475495603e-01  7.6874380595159020e-01  8.1685560181402050e-01  </DataArray> 
</PointData> 
</Piece>
</UnstructuredGrid>
</VTKFile>