<?xml version="1.0"?>
<VTKFile type="UnstructuredGrid"  version="0.1"  >
<UnstructuredGrid>
<Piece  NumberOfPoints="72" NumberOfCells="112">
<Points>
<DataArray  type="Float64"  NumberOfComponents="3"  format="ascii">0 0 0  1 0 0  2 0 0  3 0 0  4 0 0  5 0 0  6 0 0  7 0 0  0 1 0  1 1 0  2 1 0  3 1 0  4 1 0  5 1 0  6 1 0  7 1 0  0 2 0  1 2 0  2 2 0  3 2 0  4 2 0  5 2 0  6 2 0  7 2 0  0 3 0  1 3 0  2 3 0  3 3 0  4 3 0  5 3 0  6 3 0  7 3 0  0 4 0  1 4 0  2 4 0  3 4 0  4 4 0  5 4 0  6 4 0  7 4 0  0 5 0  1 5 0  2 5 0  3 5 0  4 5 0  5 5 0  6 5 0  7 5 0  0 6 0  1 6 0  2 6 0  3 6 0  4 6 0  5 6 0  6 6 0  7 6 0  0 7 0  1 7 0  2 7 0  3 7 0  4 7 0  5 7 0  6 7 0  7 7 0  0 8 0  1 8 0  2 8 0  3 8 0  4 8 0  5 8 0  6 8 0  7 8 0  </DataArray>
</Points>
<Cells>
<DataArray  type="UInt32"  Name="connectivity"  format="ascii">0 8 9  0 1 9  1 9 10  1 2 10  2 10 11  2 3 11  3 11 12  3 4 12  4 12 13  4 5 13  5 13 14  5 6 14  6 14 15  6 7 15  8 16 17  8 9 17  9 17 18  9 10 18  10 18 19  10 11 19  11 19 20  11 12 20  12 20 21  12 13 21  13 21 22  13 14 22  14 22 23  14 15 23  16 24 25  16 17 25  17 25 26  17 18 26  18 26 27  18 19 27  19 27 28  19 20 28  20 28 29  20 21 29  21 29 30  21 22 30  22 30 31  22 23 31  24 32 33  24 25 33  25 33 34  25 26 34  26 34 35  26 27 35  27 35 36  27 28 36  28 36 37  28 29 37  29 37 38  29 30 38  30 38 39  30 31 39  32 40 41  32 33 41  33 41 42  33 34 42  34 42 43  34 35 43  35 43 44  35 36 44  36 44 45  36 37 45  37 45 46  37 38 46  38 46 47  38 39 47  40 48 49  40 41 49  41 49 50  41 42 50  42 50 51  42 43 51  43 51 52  43 44 52  44 52 53  44 45 53  45 53 54  45 46 54  46 54 55  46 47 55  48 56 57  48 49 57  49 57 58  49 50 58  50 58 59  50 51 59  51 59 60  51 52 60  52 60 61  52 53 61  53 61 62  53 54 62  54 62 63  54 55 63  56 64 65  56 57 65  57 65 66  57 58 66  58 66 67  58 59 67  59 67 68  59 60 68  60 68 69  60 61 69  61 69 70  61 62 70  62 70 71  62 63 71  </DataArray>
<DataArray  type="UInt32"  Name="offsets"  format="ascii">3 6 9 12 15 18 21 24 27 30 33 36 39 42 45 48 51 54 57 60 63 66 69 72 75 78 81 84 87 90 93 96 99 102 105 108 111 114 117 120 123 126 129 132 135 138 141 144 147 150 153 156 159 162 165 168 171 174 177 180 183 186 189 192 195 198 201 204 207 210 213 216 219 222 225 228 231 234 237 240 243 246 249 252 255 258 261 264 267 270 273 276 279 282 285 288 291 294 297 300 303 306 309 312 315 318 321 324 327 330 333 336 </DataArray>
<DataArray  type="UInt8"  Name="types"  format="ascii">5 5 5 5 5 5 5 5 5 5 5 5 5 5 5 5 5 5 5 5 5 5 5 5 5 5 5 5 5 5 5 5 5 5 5 5 5 5 5 5 5 5 5 5 5 5 5 5 5 5 5 5 5 5 5 5 5 5 5 5 5 5 5 5 5 5 5 5 5 5 5 5 5 5 5 5 5 5 5 5 5 5 5 5 5 5 5 5 5 5 5 5 5 5 5 5 5 5 5 5 5 5 5 5 5 5 5 5 5 5 5 5 </DataArray>
</Cells>
<PointData  Vectors="f_175"> 
<DataArray  type="Float64"  Name="f_175"  NumberOfComponents="3" format="ascii">-1.1705818482648969e-08 9.9999927178452283e-02 0.0000000000000000e+00  -2.2636008064392154e-09 1.0000011054337986e-01 0.0000000000000000e+00  -2.1674662549358390e-10 1.0000000894823206e-01 0.0000000000000000e+00  -1.9125428037171748e-08 9.9999880476333999e-02 0.0000000000000000e+00  6.3389185378551302e-09 9.9999928790334119e-02 0.0000000000000000e+00  7.3444957586606086e-09 1.0000002286488838e-01 0.0000000000000000e+00  3.5597606439680376e-09 1.0000014598568328e-01 0.0000000000000000e+00  4.2329147924342027e-08 1.0000028260191648e-01 0.0000000000000000e+00  -5.0026812717079255e-08 -1.2954298606292360e-07 0.0000000000000000e+00  1.6498454231084866e-02 6.9373230261911611e-02 0.0000000000000000e+00  1.1940350029031512e-02 8.1699265625502185e-02 0.0000000000000000e+00  6.7247448099212468e-03 8.4760451999901634e-02 0.0000000000000000e+00  2.8597778423619232e-03 8.4286920362586407e-02 0.0000000000000000e+00  8.2156043026792073e-04 8.0063306066388507e-02 0.0000000000000000e+00  1.6266735495163880e-03 6.6150481243828774e-02 0.0000000000000000e+00  -6.4752649500785964e-09 -1.1032349487768783e-07 0.0000000000000000e+00  1.8175266695616359e-08 5.6604274164891543e-08 0.0000000000000000e+00  -1.8114830999616501e-03 4.3033241473576712e-02 0.0000000000000000e+00  3.7315069597615184e-03 6.5342233719889273e-02 0.0000000000000000e+00  4.0665515839061099e-03 7.1263838405082255e-02 0.0000000000000000e+00  3.1266324325654841e-03 7.0382487416266973e-02 0.0000000000000000e+00  2.6305285518699196e-03 6.3489633066273990e-02 0.0000000000000000e+00  2.9640835112804049e-03 4.5560372518457355e-02 0.0000000000000000e+00  9.1645758976865381e-09 8.0157753624011289e-08 0.0000000000000000e+00  -1.4690888366447443e-08 6.4241636787684740e-08 0.0000000000000000e+00  -3.9554268995942270e-03 3.0055513702058820e-02 0.0000000000000000e+00  -1.9185203801651996e-03 4.8315117223415638e-02 0.0000000000000000e+00  1.0280597538645012e-03 5.6435682555446259e-02 0.0000000000000000e+00  2.6234877509238321e-03 5.6347230281487963e-02 0.0000000000000000e+00  3.5578723678837102e-03 4.9192329686475647e-02 0.0000000000000000e+00  3.6374742129476941e-03 3.2307237498965906e-02 0.0000000000000000e+00  -7.7386870069280845e-09 -9.9113554826752087e-08 0.0000000000000000e+00  3.8760721788880621e-08 -3.7104886316592723e-08 0.0000000000000000e+00  -4.0635766914627787e-03 2.1365281644576514e-02 0.0000000000000000e+00  -3.4525069557328507e-03 3.5266097074206824e-02 0.0000000000000000e+00  -8.4921876616209828e-04 4.2266267028794116e-02 0.0000000000000000e+00  1.8501332500167912e-03 4.2807980920342083e-02 0.0000000000000000e+00  3.6388882819431627e-03 3.6802708778646831e-02 0.0000000000000000e+00  3.6873760150710742e-03 2.3023534143355302e-02 0.0000000000000000e+00  3.6792589554743533e-09 3.1869059249118433e-08 0.0000000000000000e+00  -1.1942880837832983e-08 6.0224095882110459e-08 0.0000000000000000e+00  -3.7563568182582240e-03 1.4782511635261262e-02 0.0000000000000000e+00  -3.6803215136839954e-03 2.4630730233954894e-02 0.0000000000000000e+00  -1.4870505344403884e-03 2.9806424101842505e-02 0.0000000000000000e+00  1.3031243387622293e-03 3.0385738545743134e-02 0.0000000000000000e+00  3.3730611982570450e-03 2.6028038947023945e-02 0.0000000000000000e+00  3.4429779694426879e-03 1.5971054605417791e-02 0.0000000000000000e+00  -5.1746736609676119e-09 -1.5416396022594621e-08 0.0000000000000000e+00  1.9480822500850202e-09 1.0829520619969359e-08 0.0000000000000000e+00  -3.3022777438530687e-03 9.3840553759183508e-03 0.0000000000000000e+00  -3.4024166246927065e-03 1.5497531384094466e-02 0.0000000000000000e+00  -1.5649348863638539e-03 1.8742716080013027e-02 0.0000000000000000e+00  9.7603113989297614e-04 1.9181490185423592e-02 0.0000000000000000e+00  2.9986589523429662e-03 1.6560218183796761e-02 0.0000000000000000e+00  3.1024912172945502e-03 1.0261304714294071e-02 0.0000000000000000e+00  1.2741490774102615e-09 -1.3422770268355562e-08 0.0000000000000000e+00  -3.2563796567934877e-09 3.3050930096185760e-08 0.0000000000000000e+00  -2.4721816079099233e-03 4.6243124445797534e-03 0.0000000000000000e+00  -2.5492299450996093e-03 7.3465183228671235e-03 0.0000000000000000e+00  -1.2424341451583198e-03 8.7759951820429710e-03 0.0000000000000000e+00  6.0010065341647696e-04 9.0023007624315064e-03 0.0000000000000000e+00  2.1786817642691853e-03 7.9364247704195885e-03 0.0000000000000000e+00  2.5305788819574159e-03 5.3149399492194837e-03 0.0000000000000000e+00  -1.5369497687081972e-09 9.6430871574907420e-11 0.0000000000000000e+00  -4.0238090057975860e-08 7.4998713855164477e-08 0.0000000000000000e+00  1.2442080645393206e-08 -1.2979986042721963e-08 0.0000000000000000e+00  -5.9322927816057172e-09 1.6975802193357931e-08 0.0000000000000000e+00  1.6465285335440943e-08 -6.2213363716752923e-09 0.0000000000000000e+00  -8.9576397083147393e-09 -2.3891592739013524e-08 0.0000000000000000e+00  1.7605525005825234e-09 -6.5045041468050952e-09 0.0000000000000000e+00  -8.0720515794030945e-09 -9.9083488781808669e-09 0.0000000000000000e+00  2.4086333714850106e-09 9.7672964379413644e-09 0.0000000000000000e+00  </DataArray> 
</PointData> 
</Piece>
</UnstructuredGrid>
</VTKFile>