<?xml version="1.0"?>
<VTKFile type="UnstructuredGrid"  version="0.1"  >
<UnstructuredGrid>
<Piece  NumberOfPoints="72" NumberOfCells="112">
<Points>
<DataArray  type="Float64"  NumberOfComponents="3"  format="ascii">0 0 0  1 0 0  2 0 0  3 0 0  4 0 0  5 0 0  6 0 0  7 0 0  0 1 0  1 1 0  2 1 0  3 1 0  4 1 0  5 1 0  6 1 0  7 1 0  0 2 0  1 2 0  2 2 0  3 2 0  4 2 0  5 2 0  6 2 0  7 2 0  0 3 0  1 3 0  2 3 0  3 3 0  4 3 0  5 3 0  6 3 0  7 3 0  0 4 0  1 4 0  2 4 0  3 4 0  4 4 0  5 4 0  6 4 0  7 4 0  0 5 0  1 5 0  2 5 0  3 5 0  4 5 0  5 5 0  6 5 0  7 5 0  0 6 0  1 6 0  2 6 0  3 6 0  4 6 0  5 6 0  6 6 0  7 6 0  0 7 0  1 7 0  2 7 0  3 7 0  4 7 0  5 7 0  6 7 0  7 7 0  0 8 0  1 8 0  2 8 0  3 8 0  4 8 0  5 8 0  6 8 0  7 8 0  </DataArray>
</Points>
<Cells>
<DataArray  type="UInt32"  Name="connectivity"  format="ascii">0 8 9  0 1 9  1 9 10  1 2 10  2 10 11  2 3 11  3 11 12  3 4 12  4 12 13  4 5 13  5 13 14  5 6 14  6 14 15  6 7 15  8 16 17  8 9 17  9 17 18  9 10 18  10 18 19  10 11 19  11 19 20  11 12 20  12 20 21  12 13 21  13 21 22  13 14 22  14 22 23  14 15 23  16 24 25  16 17 25  17 25 26  17 18 26  18 26 27  18 19 27  19 27 28  19 20 28  20 28 29  20 21 29  21 29 30  21 22 30  22 30 31  22 23 31  24 32 33  24 25 33  25 33 34  25 26 34  26 34 35  26 27 35  27 35 36  27 28 36  28 36 37  28 29 37  29 37 38  29 30 38  30 38 39  30 31 39  32 40 41  32 33 41  33 41 42  33 34 42  34 42 43  34 35 43  35 43 44  35 36 44  36 44 45  36 37 45  37 45 46  37 38 46  38 46 47  38 39 47  40 48 49  40 41 49  41 49 50  41 42 50  42 50 51  42 43 51  43 51 52  43 44 52  44 52 53  44 45 53  45 53 54  45 46 54  46 54 55  46 47 55  48 56 57  48 49 57  49 57 58  49 50 58  50 58 59  50 51 59  51 59 60  51 52 60  52 60 61  52 53 61  53 61 62  53 54 62  54 62 63  54 55 63  56 64 65  56 57 65  57 65 66  57 58 66  58 66 67  58 59 67  59 67 68  59 60 68  60 68 69  60 61 69  61 69 70  61 62 70  62 70 71  62 63 71  </DataArray>
<DataArray  type="UInt32"  Name="offsets"  format="ascii">3 6 9 12 15 18 21 24 27 30 33 36 39 42 45 48 51 54 57 60 63 66 69 72 75 78 81 84 87 90 93 96 99 102 105 108 111 114 117 120 123 126 129 132 135 138 141 144 147 150 153 156 159 162 165 168 171 174 177 180 183 186 189 192 195 198 201 204 207 210 213 216 219 222 225 228 231 234 237 240 243 246 249 252 255 258 261 264 267 270 273 276 279 282 285 288 291 294 297 300 303 306 309 312 315 318 321 324 327 330 333 336 </DataArray>
<DataArray  type="UInt8"  Name="types"  format="ascii">5 5 5 5 5 5 5 5 5 5 5 5 5 5 5 5 5 5 5 5 5 5 5 5 5 5 5 5 5 5 5 5 5 5 5 5 5 5 5 5 5 5 5 5 5 5 5 5 5 5 5 5 5 5 5 5 5 5 5 5 5 5 5 5 5 5 5 5 5 5 5 5 5 5 5 5 5 5 5 5 5 5 5 5 5 5 5 5 5 5 5 5 5 5 5 5 5 5 5 5 5 5 5 5 5 5 5 5 5 5 5 5 </DataArray>
</Cells>
<PointData  Vectors="f_6650"> 
<DataArray  type="Float64"  Name="f_6650"  NumberOfComponents="3" format="ascii">-2.3170029964680385e-08 1.9999984928981457e-01 0.0000000000000000e+00  -3.8286061099189106e-09 2.0000021851382993e-01 0.0000000000000000e+00  2.0045193699773467e-09 2.0000001738260914e-01 0.0000000000000000e+00  -3.4926471089247804e-08 1.9999976786698423e-01 0.0000000000000000e+00  1.2418547096912307e-08 1.9999986242155718e-01 0.0000000000000000e+00  1.3619547048320831e-08 2.0000004120025117e-01 0.0000000000000000e+00  5.6424705846407247e-09 2.0000028527486860e-01 0.0000000000000000e+00  8.6065179815120462e-08 2.0000056014855114e-01 0.0000000000000000e+00  -9.7948994799013171e-08 -2.5731788559174276e-07 0.0000000000000000e+00  3.2454897555972813e-02 1.3871110909440076e-01 0.0000000000000000e+00  2.2789156022880428e-02 1.6222935541877523e-01 0.0000000000000000e+00  1.2809739059994541e-02 1.6696473467603329e-01 0.0000000000000000e+00  6.0038827233296283e-03 1.6668033317493755e-01 0.0000000000000000e+00  2.1139871875747495e-03 1.5980015313152213e-01 0.0000000000000000e+00  3.4654938049243117e-03 1.3237454263012041e-01 0.0000000000000000e+00  -1.6388046979132297e-08 -2.2044621578786185e-07 0.0000000000000000e+00  3.6610575877732521e-08 1.1467179609060342e-07 0.0000000000000000e+00  -3.2707045040142107e-03 8.6583699098466360e-02 0.0000000000000000e+00  6.9720585446313519e-03 1.2916616758523930e-01 0.0000000000000000e+00  6.6259916622043984e-03 1.3695742003313927e-01 0.0000000000000000e+00  5.0732361796257709e-03 1.3613677558673715e-01 0.0000000000000000e+00  4.9835021908487785e-03 1.2638807749260553e-01 0.0000000000000000e+00  5.8187325425240249e-03 9.1362683703050687e-02 0.0000000000000000e+00  1.8929432548066252e-08 1.6233751641038974e-07 0.0000000000000000e+00  -3.1731644855082369e-08 1.2738520239190451e-07 0.0000000000000000e+00  -6.6754343065681520e-03 6.0879942527481884e-02 0.0000000000000000e+00  -1.8352073333401232e-03 9.8006475169505294e-02 0.0000000000000000e+00  2.2029670144263569e-03 1.1036071927217429e-01 0.0000000000000000e+00  3.6528167567165307e-03 1.0939486764196989e-01 0.0000000000000000e+00  5.2265067265968492e-03 9.7731840673286052e-02 0.0000000000000000e+00  6.4322477661143207e-03 6.4858650253573735e-02 0.0000000000000000e+00  -1.3293206220377424e-08 -1.9644223929782224e-07 0.0000000000000000e+00  7.2749333905364588e-08 -7.6498764266029537e-08 0.0000000000000000e+00  -7.3603343905695321e-03 4.3282346532430085e-02 0.0000000000000000e+00  -4.8967688845563103e-03 7.3591391632731609e-02 0.0000000000000000e+00  -9.2351180181025750e-05 8.7334690409604718e-02 0.0000000000000000e+00  3.4585511140918027e-03 8.7203336144438995e-02 0.0000000000000000e+00  5.8468738194362192e-03 7.4962029073100761e-02 0.0000000000000000e+00  6.3570474498106273e-03 4.6183598504729681e-02 0.0000000000000000e+00  1.0773491803320380e-08 6.4833486146046928e-08 0.0000000000000000e+00  -2.2358406122247882e-08 1.1875769994084280e-07 0.0000000000000000e+00  -7.4469334580615247e-03 2.9946238266635120e-02 0.0000000000000000e+00  -7.0128742875932015e-03 5.1256536586561187e-02 0.0000000000000000e+00  -1.8052897843626539e-03 6.4147461698423752e-02 0.0000000000000000e+00  3.6375743665390294e-03 6.5435222451399197e-02 0.0000000000000000e+00  6.9845918836428317e-03 5.4801475881462204e-02 0.0000000000000000e+00  6.7165030757589768e-03 3.2255762939434371e-02 0.0000000000000000e+00  -1.0953314672892959e-08 -3.2504361030320547e-08 0.0000000000000000e+00  6.3711809038149150e-09 2.6264624665780883e-08 0.0000000000000000e+00  -6.8504250004057894e-03 1.9072283120808588e-02 0.0000000000000000e+00  -7.1385522371827182e-03 3.2247425600036898e-02 0.0000000000000000e+00  -3.1572365167632115e-03 4.0080809061109196e-02 0.0000000000000000e+00  2.5082936982847933e-03 4.1352052946606030e-02 0.0000000000000000e+00  6.7758468690557357e-03 3.5161834781946760e-02 0.0000000000000000e+00  6.6973140243170581e-03 2.1040016703050543e-02 0.0000000000000000e+00  2.0078839383636921e-09 -2.6927192909331872e-08 0.0000000000000000e+00  -5.7510469369219806e-09 6.7128164039621611e-08 0.0000000000000000e+00  -5.2022155380136012e-03 9.4492044650887185e-03 0.0000000000000000e+00  -5.4912131928525846e-03 1.5297772789121493e-02 0.0000000000000000e+00  -2.7180474388541539e-03 1.8699148118818221e-02 0.0000000000000000e+00  1.3885842776388743e-03 1.9342501465530210e-02 0.0000000000000000e+00  4.8784501073466328e-03 1.6890465163661193e-02 0.0000000000000000e+00  5.5179387444609755e-03 1.1040414190611305e-02 0.0000000000000000e+00  -4.6191961063451250e-09 -1.8717591759807607e-09 0.0000000000000000e+00  -8.3158745009349191e-08 1.5688419195477646e-07 0.0000000000000000e+00  2.5860368677198771e-08 -2.3394140547748661e-08 0.0000000000000000e+00  -1.1056702763461866e-08 3.7831135402876878e-08 0.0000000000000000e+00  3.4862162802951106e-08 -1.4152894011772190e-08 0.0000000000000000e+00  -1.8231838445844972e-08 -4.9288275526774584e-08 0.0000000000000000e+00  3.0046759300987206e-09 -1.3731274431503220e-08 0.0000000000000000e+00  -1.6979570494493374e-08 -1.8511929731596631e-08 0.0000000000000000e+00  5.0718305339337822e-09 1.9513895901500807e-08 0.0000000000000000e+00  </DataArray> 
</PointData> 
</Piece>
</UnstructuredGrid>
</VTKFile>