# vtk DataFile Version 2.0
Output of NLACE
ASCII
DATASET UNSTRUCTURED_GRID
POINTS           72 FLOAT
 0.000000E+00  0.000000E+00  0.000000E+00
 1.000000E+00  0.000000E+00  0.000000E+00
 2.000000E+00  0.000000E+00  0.000000E+00
 3.000000E+00  0.000000E+00  0.000000E+00
 4.000000E+00  0.000000E+00  0.000000E+00
 5.000000E+00  0.000000E+00  0.000000E+00
 6.000000E+00  0.000000E+00  0.000000E+00
 7.000000E+00  0.000000E+00  0.000000E+00
 0.000000E+00  1.000000E+00  0.000000E+00
 1.000000E+00  1.000000E+00  0.000000E+00
 2.000000E+00  1.000000E+00  0.000000E+00
 3.000000E+00  1.000000E+00  0.000000E+00
 4.000000E+00  1.000000E+00  0.000000E+00
 5.000000E+00  1.000000E+00  0.000000E+00
 6.000000E+00  1.000000E+00  0.000000E+00
 7.000000E+00  1.000000E+00  0.000000E+00
 0.000000E+00  2.000000E+00  0.000000E+00
 1.000000E+00  2.000000E+00  0.000000E+00
 2.000000E+00  2.000000E+00  0.000000E+00
 3.000000E+00  2.000000E+00  0.000000E+00
 4.000000E+00  2.000000E+00  0.000000E+00
 5.000000E+00  2.000000E+00  0.000000E+00
 6.000000E+00  2.000000E+00  0.000000E+00
 7.000000E+00  2.000000E+00  0.000000E+00
 0.000000E+00  3.000000E+00  0.000000E+00
 1.000000E+00  3.000000E+00  0.000000E+00
 2.000000E+00  3.000000E+00  0.000000E+00
 3.000000E+00  3.000000E+00  0.000000E+00
 4.000000E+00  3.000000E+00  0.000000E+00
 5.000000E+00  3.000000E+00  0.000000E+00
 6.000000E+00  3.000000E+00  0.000000E+00
 7.000000E+00  3.000000E+00  0.000000E+00
 0.000000E+00  4.000000E+00  0.000000E+00
 1.000000E+00  4.000000E+00  0.000000E+00
 2.000000E+00  4.000000E+00  0.000000E+00
 3.000000E+00  4.000000E+00  0.000000E+00
 4.000000E+00  4.000000E+00  0.000000E+00
 5.000000E+00  4.000000E+00  0.000000E+00
 6.000000E+00  4.000000E+00  0.000000E+00
 7.000000E+00  4.000000E+00  0.000000E+00
 0.000000E+00  5.000000E+00  0.000000E+00
 1.000000E+00  5.000000E+00  0.000000E+00
 2.000000E+00  5.000000E+00  0.000000E+00
 3.000000E+00  5.000000E+00  0.000000E+00
 4.000000E+00  5.000000E+00  0.000000E+00
 5.000000E+00  5.000000E+00  0.000000E+00
 6.000000E+00  5.000000E+00  0.000000E+00
 7.000000E+00  5.000000E+00  0.000000E+00
 0.000000E+00  6.000000E+00  0.000000E+00
 1.000000E+00  6.000000E+00  0.000000E+00
 2.000000E+00  6.000000E+00  0.000000E+00
 3.000000E+00  6.000000E+00  0.000000E+00
 4.000000E+00  6.000000E+00  0.000000E+00
 5.000000E+00  6.000000E+00  0.000000E+00
 6.000000E+00  6.000000E+00  0.000000E+00
 7.000000E+00  6.000000E+00  0.000000E+00
 0.000000E+00  7.000000E+00  0.000000E+00
 1.000000E+00  7.000000E+00  0.000000E+00
 2.000000E+00  7.000000E+00  0.000000E+00
 3.000000E+00  7.000000E+00  0.000000E+00
 4.000000E+00  7.000000E+00  0.000000E+00
 5.000000E+00  7.000000E+00  0.000000E+00
 6.000000E+00  7.000000E+00  0.000000E+00
 7.000000E+00  7.000000E+00  0.000000E+00
 0.000000E+00  8.000000E+00  0.000000E+00
 1.000000E+00  8.000000E+00  0.000000E+00
 2.000000E+00  8.000000E+00  0.000000E+00
 3.000000E+00  8.000000E+00  0.000000E+00
 4.000000E+00  8.000000E+00  0.000000E+00
 5.000000E+00  8.000000E+00  0.000000E+00
 6.000000E+00  8.000000E+00  0.000000E+00
 7.000000E+00  8.000000E+00  0.000000E+00
CELLS          112         448
           3           0           9           8
           3           0           1           9
           3           1          10           9
           3           1           2          10
           3           2          11          10
           3           2           3          11
           3           3          12          11
           3           3           4          12
           3           4          13          12
           3           4           5          13
           3           5          14          13
           3           5           6          14
           3           6          15          14
           3           6           7          15
           3           8          17          16
           3           8           9          17
           3           9          18          17
           3           9          10          18
           3          10          19          18
           3          10          11          19
           3          11          20          19
           3          11          12          20
           3          12          21          20
           3          12          13          21
           3          13          22          21
           3          13          14          22
           3          14          23          22
           3          14          15          23
           3          16          25          24
           3          16          17          25
           3          17          26          25
           3          17          18          26
           3          18          27          26
           3          18          19          27
           3          19          28          27
           3          19          20          28
           3          20          29          28
           3          20          21          29
           3          21          30          29
           3          21          22          30
           3          22          31          30
           3          22          23          31
           3          24          33          32
           3          24          25          33
           3          25          34          33
           3          25          26          34
           3          26          35          34
           3          26          27          35
           3          27          36          35
           3          27          28          36
           3          28          37          36
           3          28          29          37
           3          29          38          37
           3          29          30          38
           3          30          39          38
           3          30          31          39
           3          32          41          40
           3          32          33          41
           3          33          42          41
           3          33          34          42
           3          34          43          42
           3          34          35          43
           3          35          44          43
           3          35          36          44
           3          36          45          44
           3          36          37          45
           3          37          46          45
           3          37          38          46
           3          38          47          46
           3          38          39          47
           3          40          49          48
           3          40          41          49
           3          41          50          49
           3          41          42          50
           3          42          51          50
           3          42          43          51
           3          43          52          51
           3          43          44          52
           3          44          53          52
           3          44          45          53
           3          45          54          53
           3          45          46          54
           3          46          55          54
           3          46          47          55
           3          48          57          56
           3          48          49          57
           3          49          58          57
           3          49          50          58
           3          50          59          58
           3          50          51          59
           3          51          60          59
           3          51          52          60
           3          52          61          60
           3          52          53          61
           3          53          62          61
           3          53          54          62
           3          54          63          62
           3          54          55          63
           3          56          65          64
           3          56          57          65
           3          57          66          65
           3          57          58          66
           3          58          67          66
           3          58          59          67
           3          59          68          67
           3          59          60          68
           3          60          69          68
           3          60          61          69
           3          61          70          69
           3          61          62          70
           3          62          71          70
           3          62          63          71
CELL_TYPES          112
5
5
5
5
5
5
5
5
5
5
5
5
5
5
5
5
5
5
5
5
5
5
5
5
5
5
5
5
5
5
5
5
5
5
5
5
5
5
5
5
5
5
5
5
5
5
5
5
5
5
5
5
5
5
5
5
5
5
5
5
5
5
5
5
5
5
5
5
5
5
5
5
5
5
5
5
5
5
5
5
5
5
5
5
5
5
5
5
5
5
5
5
5
5
5
5
5
5
5
5
5
5
5
5
5
5
5
5
5
5
5
5
POINT_DATA           72
 SCALARS measuredDisp11 float  1                   
LOOKUP_TABLE default
 0.00000E+00
 0.00000E+00
 0.00000E+00
 0.00000E+00
 0.00000E+00
 0.00000E+00
 0.00000E+00
 0.00000E+00
 0.00000E+00
 1.59564E-02
 1.08488E-02
 6.08500E-03
 3.14412E-03
 1.29243E-03
 1.83884E-03
 0.00000E+00
 0.00000E+00
-1.45923E-03
 3.24055E-03
 2.55943E-03
 1.94660E-03
 2.35296E-03
 2.85464E-03
 0.00000E+00
 0.00000E+00
-2.71998E-03
 8.33294E-05
 1.17491E-03
 1.02935E-03
 1.66864E-03
 2.79478E-03
 0.00000E+00
 0.00000E+00
-3.29677E-03
-1.44427E-03
 7.56851E-04
 1.60842E-03
 2.20798E-03
 2.66967E-03
 0.00000E+00
 0.00000E+00
-3.69057E-03
-3.33254E-03
-3.18248E-04
 2.33446E-03
 3.61153E-03
 3.27353E-03
 0.00000E+00
 0.00000E+00
-3.54815E-03
-3.73613E-03
-1.59231E-03
 1.53227E-03
 3.77718E-03
 3.59482E-03
 0.00000E+00
 0.00000E+00
-2.73005E-03
-2.94197E-03
-1.47562E-03
 7.88490E-04
 2.69976E-03
 2.98736E-03
 0.00000E+00
 0.00000E+00
 0.00000E+00
 0.00000E+00
 0.00000E+00
 0.00000E+00
 0.00000E+00
 0.00000E+00
 0.00000E+00
 SCALARS measuredDisp12 float  1                   
LOOKUP_TABLE default
 1.00000E-01
 1.00000E-01
 1.00000E-01
 1.00000E-01
 1.00000E-01
 1.00000E-01
 1.00000E-01
 1.00000E-01
 0.00000E+00
 6.93378E-02
 8.05300E-02
 8.22044E-02
 8.23934E-02
 7.97367E-02
 6.62242E-02
 0.00000E+00
 0.00000E+00
 4.35505E-02
 6.38240E-02
 6.56936E-02
 6.57542E-02
 6.28985E-02
 4.58023E-02
 0.00000E+00
 0.00000E+00
 3.08244E-02
 4.96913E-02
 5.39250E-02
 5.30478E-02
 4.85395E-02
 3.25514E-02
 0.00000E+00
 0.00000E+00
 2.19171E-02
 3.83253E-02
 4.50685E-02
 4.43953E-02
 3.81593E-02
 2.31601E-02
 0.00000E+00
 0.00000E+00
 1.51637E-02
 2.66258E-02
 3.43410E-02
 3.50495E-02
 2.87735E-02
 1.62847E-02
 0.00000E+00
 0.00000E+00
 9.68823E-03
 1.67499E-02
 2.13381E-02
 2.21706E-02
 1.86016E-02
 1.07787E-02
 0.00000E+00
 0.00000E+00
 4.82492E-03
 7.95123E-03
 9.92314E-03
 1.03402E-02
 8.95403E-03
 5.72549E-03
 0.00000E+00
 0.00000E+00
 0.00000E+00
 0.00000E+00
 0.00000E+00
 0.00000E+00
 0.00000E+00
 0.00000E+00
 0.00000E+00
 SCALARS predictedDisp11 float  1                  
LOOKUP_TABLE default
 0.00000E+00
 0.00000E+00
 0.00000E+00
 0.00000E+00
 0.00000E+00
 0.00000E+00
 0.00000E+00
 0.00000E+00
 0.00000E+00
 1.54432E-02
 1.06527E-02
 5.88053E-03
 2.62909E-03
 1.10008E-03
 1.91999E-03
 0.00000E+00
 0.00000E+00
-9.91605E-04
 3.56239E-03
 3.27750E-03
 2.23336E-03
 1.98282E-03
 2.74403E-03
 0.00000E+00
 0.00000E+00
-2.95475E-03
-7.66804E-04
 1.06601E-03
 1.72536E-03
 2.29317E-03
 2.74878E-03
 0.00000E+00
 0.00000E+00
-3.50889E-03
-2.36974E-03
-7.75878E-05
 1.73393E-03
 2.93839E-03
 3.05439E-03
 0.00000E+00
 0.00000E+00
-3.72142E-03
-3.27539E-03
-7.15297E-04
 1.92260E-03
 3.64443E-03
 3.52557E-03
 0.00000E+00
 0.00000E+00
-3.51656E-03
-3.55048E-03
-1.32083E-03
 1.60004E-03
 3.68927E-03
 3.56706E-03
 0.00000E+00
 0.00000E+00
-2.69095E-03
-2.80968E-03
-1.32873E-03
 8.12762E-04
 2.61202E-03
 2.92279E-03
 0.00000E+00
 0.00000E+00
 0.00000E+00
 0.00000E+00
 0.00000E+00
 0.00000E+00
 0.00000E+00
 0.00000E+00
 0.00000E+00
 SCALARS predictedDisp12 float  1                  
LOOKUP_TABLE default
 1.00000E-01
 1.00000E-01
 1.00000E-01
 1.00000E-01
 1.00000E-01
 1.00000E-01
 1.00000E-01
 1.00000E-01
 0.00000E+00
 6.90418E-02
 8.00317E-02
 8.25080E-02
 8.25383E-02
 7.94368E-02
 6.62447E-02
 0.00000E+00
 0.00000E+00
 4.39859E-02
 6.38540E-02
 6.83087E-02
 6.76373E-02
 6.22631E-02
 4.58390E-02
 0.00000E+00
 0.00000E+00
 3.12762E-02
 4.89684E-02
 5.53054E-02
 5.47177E-02
 4.83862E-02
 3.25410E-02
 0.00000E+00
 0.00000E+00
 2.23715E-02
 3.72492E-02
 4.37557E-02
 4.35262E-02
 3.73392E-02
 2.34890E-02
 0.00000E+00
 0.00000E+00
 1.54993E-02
 2.66467E-02
 3.25406E-02
 3.28360E-02
 2.77301E-02
 1.67796E-02
 0.00000E+00
 0.00000E+00
 9.88634E-03
 1.68071E-02
 2.08319E-02
 2.14948E-02
 1.83391E-02
 1.11142E-02
 0.00000E+00
 0.00000E+00
 4.90759E-03
 7.95668E-03
 9.70252E-03
 1.00761E-02
 8.86441E-03
 5.85512E-03
 0.00000E+00
 0.00000E+00
 0.00000E+00
 0.00000E+00
 0.00000E+00
 0.00000E+00
 0.00000E+00
 0.00000E+00
 0.00000E+00
 SCALARS dual11 float  1                           
LOOKUP_TABLE default
 0.00000E+00
 0.00000E+00
 0.00000E+00
 0.00000E+00
 0.00000E+00
 0.00000E+00
 0.00000E+00
 0.00000E+00
 0.00000E+00
 2.46400E-05
-1.72780E-05
-9.38149E-06
 7.48018E-05
 7.33619E-05
 1.88888E-05
 0.00000E+00
 0.00000E+00
 2.96512E-05
-4.01369E-06
-1.04080E-04
-9.84534E-05
-1.77551E-05
-1.59771E-06
 0.00000E+00
 0.00000E+00
 1.53517E-04
 2.05941E-04
 4.40519E-05
-1.52122E-04
-1.93442E-04
-9.08724E-05
 0.00000E+00
 0.00000E+00
 1.46018E-04
 2.96499E-04
 2.35049E-04
 3.64072E-06
-1.64071E-04
-1.34546E-04
 0.00000E+00
 0.00000E+00
 3.08324E-05
 1.10419E-04
 2.00701E-04
 1.44404E-04
 1.47126E-05
-4.69822E-05
 0.00000E+00
 0.00000E+00
-5.32676E-05
-7.94270E-05
-1.15641E-05
 8.78671E-05
 1.08904E-04
 5.33033E-05
 0.00000E+00
 0.00000E+00
-6.05296E-05
-1.12117E-04
-8.73680E-05
 9.20102E-06
 8.85994E-05
 7.70192E-05
 0.00000E+00
 0.00000E+00
 0.00000E+00
 0.00000E+00
 0.00000E+00
 0.00000E+00
 0.00000E+00
 0.00000E+00
 0.00000E+00
 SCALARS dual12 float  1                           
LOOKUP_TABLE default
 0.00000E+00
 0.00000E+00
 0.00000E+00
 0.00000E+00
 0.00000E+00
 0.00000E+00
 0.00000E+00
 0.00000E+00
 0.00000E+00
 3.08085E-05
-2.92664E-05
-1.74452E-04
-9.28038E-05
 4.73847E-05
 3.15717E-05
 0.00000E+00
 0.00000E+00
 3.82747E-05
 1.27383E-05
-2.58151E-04
-2.15771E-04
 6.95633E-05
 7.83731E-05
 0.00000E+00
 0.00000E+00
 6.38112E-05
 1.93374E-04
 4.16877E-06
-7.73645E-05
 6.88009E-05
 7.47059E-05
 0.00000E+00
 0.00000E+00
 1.76459E-05
 3.22114E-04
 4.03163E-04
 3.05881E-04
 2.01128E-04
 3.27383E-05
 0.00000E+00
 0.00000E+00
-3.26757E-05
 2.50648E-04
 5.77889E-04
 5.97603E-04
 3.56623E-04
 3.42767E-05
 0.00000E+00
 0.00000E+00
-3.02455E-05
 1.44563E-04
 4.27547E-04
 5.33307E-04
 3.52809E-04
 5.84104E-05
 0.00000E+00
 0.00000E+00
-4.47016E-06
 6.87009E-05
 2.00525E-04
 2.66608E-04
 1.97581E-04
 5.50318E-05
 0.00000E+00
 0.00000E+00
 0.00000E+00
 0.00000E+00
 0.00000E+00
 0.00000E+00
 0.00000E+00
 0.00000E+00
 0.00000E+00
 SCALARS NLP float  1                              
LOOKUP_TABLE default
 2.00000E+00
 2.00000E+00
 2.00000E+00
 2.00000E+00
 2.00000E+00
 2.00000E+00
 2.00000E+00
 2.00000E+00
 2.00000E+00
 2.00000E+00
 2.00000E+00
 2.00000E+00
 2.00000E+00
 2.00000E+00
 2.00000E+00
 2.00000E+00
 2.00000E+00
 2.00000E+00
 2.00000E+00
 2.00000E+00
 2.00000E+00
 2.00000E+00
 2.00000E+00
 2.00000E+00
 2.00000E+00
 2.00000E+00
 2.00000E+00
 2.00000E+00
 2.00000E+00
 2.00000E+00
 2.00000E+00
 2.00000E+00
 2.00000E+00
 2.00000E+00
 2.00000E+00
 2.00000E+00
 2.00000E+00
 2.00000E+00
 2.00000E+00
 2.00000E+00
 2.00000E+00
 2.00000E+00
 2.00000E+00
 2.00000E+00
 2.00000E+00
 2.00000E+00
 2.00000E+00
 2.00000E+00
 2.00000E+00
 2.00000E+00
 2.00000E+00
 2.00000E+00
 2.00000E+00
 2.00000E+00
 2.00000E+00
 2.00000E+00
 2.00000E+00
 2.00000E+00
 2.00000E+00
 2.00000E+00
 2.00000E+00
 2.00000E+00
 2.00000E+00
 2.00000E+00
 2.00000E+00
 2.00000E+00
 2.00000E+00
 2.00000E+00
 2.00000E+00
 2.00000E+00
 2.00000E+00
 2.00000E+00
 SCALARS SM float  1                               
LOOKUP_TABLE default
 1.04570E+00
 1.11564E+00
 1.07729E+00
 1.00000E+00
 1.11217E+00
 1.27659E+00
 1.26029E+00
 1.21520E+00
 1.02112E+00
 1.12004E+00
 1.19665E+00
 1.14094E+00
 1.16460E+00
 1.25533E+00
 1.21905E+00
 1.17011E+00
 1.02485E+00
 1.13505E+00
 1.41619E+00
 1.51934E+00
 1.44708E+00
 1.30551E+00
 1.14169E+00
 1.05784E+00
 1.10212E+00
 1.14576E+00
 1.50868E+00
 1.84586E+00
 1.80318E+00
 1.48253E+00
 1.17576E+00
 1.05383E+00
 1.16225E+00
 1.14683E+00
 1.34880E+00
 1.73390E+00
 1.81651E+00
 1.55087E+00
 1.26181E+00
 1.15425E+00
 1.12452E+00
 1.09806E+00
 1.10549E+00
 1.29679E+00
 1.42099E+00
 1.33296E+00
 1.19739E+00
 1.15915E+00
 1.04802E+00
 1.03333E+00
 1.00000E+00
 1.00000E+00
 1.01137E+00
 1.03864E+00
 1.04221E+00
 1.05325E+00
 1.00409E+00
 1.00000E+00
 1.00000E+00
 1.00000E+00
 1.00000E+00
 1.00000E+00
 1.00000E+00
 1.00000E+00
 1.00205E+00
 1.00000E+00
 1.00000E+00
 1.00000E+00
 1.00000E+00
 1.00000E+00
 1.00000E+00
 1.00000E+00
 SCALARS gradient1 float  1                        
LOOKUP_TABLE default
 0.00000E+00
 0.00000E+00
 0.00000E+00
 0.00000E+00
 0.00000E+00
 0.00000E+00
 0.00000E+00
 0.00000E+00
 0.00000E+00
 0.00000E+00
 0.00000E+00
 0.00000E+00
 0.00000E+00
 0.00000E+00
 0.00000E+00
 0.00000E+00
 0.00000E+00
 0.00000E+00
 0.00000E+00
 0.00000E+00
 0.00000E+00
 0.00000E+00
 0.00000E+00
 0.00000E+00
 0.00000E+00
 0.00000E+00
 0.00000E+00
 0.00000E+00
 0.00000E+00
 0.00000E+00
 0.00000E+00
 0.00000E+00
 0.00000E+00
 0.00000E+00
 0.00000E+00
 0.00000E+00
 0.00000E+00
 0.00000E+00
 0.00000E+00
 0.00000E+00
 0.00000E+00
 0.00000E+00
 0.00000E+00
 0.00000E+00
 0.00000E+00
 0.00000E+00
 0.00000E+00
 0.00000E+00
 0.00000E+00
 0.00000E+00
 0.00000E+00
 0.00000E+00
 0.00000E+00
 0.00000E+00
 0.00000E+00
 0.00000E+00
 0.00000E+00
 0.00000E+00
 0.00000E+00
 0.00000E+00
 0.00000E+00
 0.00000E+00
 0.00000E+00
 0.00000E+00
 0.00000E+00
 0.00000E+00
 0.00000E+00
 0.00000E+00
 0.00000E+00
 0.00000E+00
 0.00000E+00
 0.00000E+00
 SCALARS gradient2 float  1                        
LOOKUP_TABLE default
 1.28072E-11
-1.60998E-11
-1.37499E-11
 2.21382E-07
 4.19518E-12
 1.51095E-12
-6.32443E-12
-1.31877E-11
 1.39418E-11
-1.31762E-11
-1.77539E-11
-8.07002E-12
 8.19390E-12
 5.00811E-12
 3.80598E-12
 9.84676E-13
 9.43939E-12
 4.14088E-12
-1.16953E-11
-1.38507E-12
-9.98380E-13
 9.46680E-12
-8.24665E-12
-9.37558E-12
 3.36972E-12
 1.03449E-11
-5.11967E-12
-2.62850E-12
 3.74783E-12
-2.51858E-12
-8.12474E-12
-1.10308E-11
-2.92663E-12
 1.19424E-11
-5.85217E-13
 3.13209E-14
 9.20660E-13
-1.66161E-12
-2.84502E-12
 5.36239E-13
-3.80520E-12
 2.67946E-12
 7.49962E-12
 1.16105E-12
 1.99619E-12
 3.51347E-12
-4.66479E-12
 3.11611E-12
 4.48934E-13
 5.02341E-12
 1.41507E-06
 1.87591E-06
 5.47818E-12
-2.89164E-12
 1.71738E-12
-3.28766E-12
 1.15497E-11
 1.34047E-07
 2.05747E-06
 4.62018E-06
 5.60895E-06
 3.64968E-06
 1.25295E-06
 1.48930E-07
 3.36006E-11
 1.27580E-07
 6.19726E-07
 1.67566E-06
 2.52481E-06
 2.25097E-06
 1.09060E-06
 2.73664E-07
CELL_DATA         112
SCALARS elemDataMatch  float  1
LOOKUP_TABLE default
 1.46273E-08
 1.46273E-08
 3.69181E-08
 1.19497E-08
 1.28992E-08
 5.58204E-09
 2.37307E-08
 1.19275E-08
 1.95328E-08
 5.28845E-09
 4.67349E-09
 2.91953E-10
 2.91953E-10
 0.00000E+00
 1.70115E-08
 1.62675E-08
 2.01834E-08
 3.07661E-08
 2.72213E-07
 2.86126E-07
 7.25304E-07
 2.01509E-07
 1.40687E-07
 5.70748E-08
 4.04547E-08
 5.32513E-09
 5.15078E-10
 2.91953E-10
 1.07999E-08
 3.14332E-08
 4.83498E-08
 3.80836E-08
 8.63673E-08
 5.50981E-07
 9.65521E-07
 1.14990E-06
 4.47022E-07
 1.26527E-07
 3.41356E-08
 2.51065E-08
 8.54518E-10
 5.65775E-10
 1.04766E-08
 3.19039E-08
 9.24457E-08
 1.95326E-07
 4.61973E-07
 1.92252E-07
 1.33734E-07
 2.33893E-07
 1.59567E-07
 1.99674E-07
 1.10784E-07
 3.38968E-08
 9.88568E-09
 9.26935E-11
 4.73331E-09
 2.18366E-08
 2.20995E-08
 7.91257E-08
 3.16110E-07
 6.25746E-07
 8.74209E-07
 6.00739E-07
 5.00375E-07
 2.35918E-07
 1.14753E-07
 7.58312E-08
 3.43479E-08
 1.06733E-08
 1.67682E-09
 9.13996E-09
 1.19910E-08
 7.73215E-09
 1.70642E-08
 1.86708E-07
 2.72669E-07
 6.55667E-07
 3.27648E-07
 3.92483E-07
 4.64173E-08
 3.38118E-08
 2.42018E-08
 1.28528E-08
 3.48443E-10
 2.75910E-09
 3.94297E-09
 5.95202E-09
 7.63613E-09
 2.60640E-08
 3.43395E-08
 6.42632E-08
 3.34818E-08
 3.37854E-08
 4.59407E-09
 5.92660E-09
 7.48267E-09
 4.72208E-09
 0.00000E+00
 3.48443E-10
 3.48443E-10
 1.31322E-09
 7.30477E-10
 4.41718E-09
 2.92712E-09
 8.43378E-09
 2.93046E-09
 4.48332E-09
 6.55429E-10
 1.28128E-09
 8.73843E-10
 8.73843E-10
SCALARS elemRegul  float  1
LOOKUP_TABLE default
 2.59713E-08
 1.22783E-08
 1.47219E-08
 3.92920E-08
 4.33753E-08
 6.45930E-08
 5.10580E-08
 3.83273E-08
 2.74505E-08
 6.87146E-08
 4.41947E-09
 4.91551E-09
 1.02396E-08
 1.01654E-08
 3.03974E-08
 2.50248E-08
 1.98164E-07
 1.35170E-07
 1.47094E-07
 3.65725E-07
 3.71019E-07
 2.00880E-07
 2.49579E-07
 2.68747E-08
 7.33892E-08
 1.82503E-08
 3.25398E-08
 3.75007E-08
 1.96912E-08
 3.06496E-08
 3.29558E-07
 2.18986E-07
 3.05611E-07
 2.93142E-07
 2.71099E-07
 3.30075E-07
 5.74058E-07
 1.28436E-07
 3.13607E-07
 6.99931E-08
 4.00667E-08
 1.76190E-08
 9.63029E-09
 4.76374E-09
 1.01982E-07
 3.93176E-07
 4.34652E-07
 3.15566E-07
 4.84045E-08
 4.99921E-09
 1.76857E-07
 2.68713E-07
 2.20571E-07
 2.53782E-07
 4.74327E-08
 6.23765E-08
 5.30860E-09
 6.54075E-09
 6.08482E-09
 2.49975E-07
 2.39484E-07
 8.48396E-07
 5.16210E-07
 4.08167E-07
 4.10474E-07
 2.95125E-07
 1.64663E-07
 2.19269E-07
 1.40295E-08
 2.89812E-08
 1.51711E-08
 1.22264E-08
 1.32524E-08
 2.79597E-08
 2.78216E-08
 3.11701E-07
 2.20536E-07
 4.58017E-07
 4.21314E-07
 2.35939E-07
 2.16600E-07
 1.06154E-07
 6.05102E-08
 3.16921E-08
 4.86661E-09
 3.31605E-09
 2.77645E-09
 2.77645E-09
 0.00000E+00
 0.00000E+00
 0.00000E+00
 6.46770E-10
 3.23385E-10
 5.58989E-09
 3.73180E-09
 4.48502E-09
 4.45317E-09
 7.39508E-09
 2.08654E-11
 4.17308E-11
 0.00000E+00
 0.00000E+00
 0.00000E+00
 0.00000E+00
 0.00000E+00
 0.00000E+00
 0.00000E+00
 0.00000E+00
 0.00000E+00
 0.00000E+00
 0.00000E+00
 0.00000E+00
SCALARS l2grad2  float  1
LOOKUP_TABLE default
 1.01924E-01
 7.00807E-02
 7.67382E-02
 1.25367E-01
 1.31720E-01
 1.60740E-01
 1.42910E-01
 1.23818E-01
 1.04786E-01
 1.65789E-01
 4.20451E-02
 4.43419E-02
 6.39987E-02
 6.37665E-02
 1.10268E-01
 1.00050E-01
 2.81541E-01
 2.32525E-01
 2.42565E-01
 3.82479E-01
 3.85237E-01
 2.83464E-01
 3.15961E-01
 1.03682E-01
 1.71335E-01
 8.54407E-02
 1.14087E-01
 1.22476E-01
 8.87495E-02
 1.10724E-01
 3.63075E-01
 2.95963E-01
 3.49635E-01
 3.42428E-01
 3.29302E-01
 3.63360E-01
 4.79190E-01
 2.26659E-01
 3.54179E-01
 1.67324E-01
 1.26597E-01
 8.39500E-02
 6.20654E-02
 4.36520E-02
 2.01972E-01
 3.96573E-01
 4.16966E-01
 3.55283E-01
 1.39147E-01
 4.47178E-02
 2.65975E-01
 3.27850E-01
 2.97032E-01
 3.18611E-01
 1.37743E-01
 1.57958E-01
 4.60808E-02
 5.11498E-02
 4.93348E-02
 3.16212E-01
 3.09505E-01
 5.82545E-01
 4.54405E-01
 4.04063E-01
 4.05203E-01
 3.43584E-01
 2.56642E-01
 2.96154E-01
 7.49121E-02
 1.07668E-01
 7.79003E-02
 6.99325E-02
 7.28078E-02
 1.05754E-01
 1.05492E-01
 3.53101E-01
 2.97009E-01
 4.28027E-01
 4.10519E-01
 3.07206E-01
 2.94347E-01
 2.06063E-01
 1.55577E-01
 1.12592E-01
 4.41208E-02
 3.64200E-02
 3.33254E-02
 3.33254E-02
 0.00000E+00
 0.00000E+00
 0.00000E+00
 1.60844E-02
 1.13734E-02
 4.72859E-02
 3.86357E-02
 4.23557E-02
 4.22051E-02
 5.43878E-02
 2.88897E-03
 4.08562E-03
 0.00000E+00
 0.00000E+00
 0.00000E+00
 0.00000E+00
 0.00000E+00
 0.00000E+00
 0.00000E+00
 0.00000E+00
 0.00000E+00
 0.00000E+00
 0.00000E+00
 0.00000E+00
