# vtk DataFile Version 2.0
Output of NLACE
ASCII
DATASET UNSTRUCTURED_GRID
POINTS           72 FLOAT
 0.000000E+00  0.000000E+00  0.000000E+00
 1.000000E+00  0.000000E+00  0.000000E+00
 2.000000E+00  0.000000E+00  0.000000E+00
 3.000000E+00  0.000000E+00  0.000000E+00
 4.000000E+00  0.000000E+00  0.000000E+00
 5.000000E+00  0.000000E+00  0.000000E+00
 6.000000E+00  0.000000E+00  0.000000E+00
 7.000000E+00  0.000000E+00  0.000000E+00
 0.000000E+00  1.000000E+00  0.000000E+00
 1.000000E+00  1.000000E+00  0.000000E+00
 2.000000E+00  1.000000E+00  0.000000E+00
 3.000000E+00  1.000000E+00  0.000000E+00
 4.000000E+00  1.000000E+00  0.000000E+00
 5.000000E+00  1.000000E+00  0.000000E+00
 6.000000E+00  1.000000E+00  0.000000E+00
 7.000000E+00  1.000000E+00  0.000000E+00
 0.000000E+00  2.000000E+00  0.000000E+00
 1.000000E+00  2.000000E+00  0.000000E+00
 2.000000E+00  2.000000E+00  0.000000E+00
 3.000000E+00  2.000000E+00  0.000000E+00
 4.000000E+00  2.000000E+00  0.000000E+00
 5.000000E+00  2.000000E+00  0.000000E+00
 6.000000E+00  2.000000E+00  0.000000E+00
 7.000000E+00  2.000000E+00  0.000000E+00
 0.000000E+00  3.000000E+00  0.000000E+00
 1.000000E+00  3.000000E+00  0.000000E+00
 2.000000E+00  3.000000E+00  0.000000E+00
 3.000000E+00  3.000000E+00  0.000000E+00
 4.000000E+00  3.000000E+00  0.000000E+00
 5.000000E+00  3.000000E+00  0.000000E+00
 6.000000E+00  3.000000E+00  0.000000E+00
 7.000000E+00  3.000000E+00  0.000000E+00
 0.000000E+00  4.000000E+00  0.000000E+00
 1.000000E+00  4.000000E+00  0.000000E+00
 2.000000E+00  4.000000E+00  0.000000E+00
 3.000000E+00  4.000000E+00  0.000000E+00
 4.000000E+00  4.000000E+00  0.000000E+00
 5.000000E+00  4.000000E+00  0.000000E+00
 6.000000E+00  4.000000E+00  0.000000E+00
 7.000000E+00  4.000000E+00  0.000000E+00
 0.000000E+00  5.000000E+00  0.000000E+00
 1.000000E+00  5.000000E+00  0.000000E+00
 2.000000E+00  5.000000E+00  0.000000E+00
 3.000000E+00  5.000000E+00  0.000000E+00
 4.000000E+00  5.000000E+00  0.000000E+00
 5.000000E+00  5.000000E+00  0.000000E+00
 6.000000E+00  5.000000E+00  0.000000E+00
 7.000000E+00  5.000000E+00  0.000000E+00
 0.000000E+00  6.000000E+00  0.000000E+00
 1.000000E+00  6.000000E+00  0.000000E+00
 2.000000E+00  6.000000E+00  0.000000E+00
 3.000000E+00  6.000000E+00  0.000000E+00
 4.000000E+00  6.000000E+00  0.000000E+00
 5.000000E+00  6.000000E+00  0.000000E+00
 6.000000E+00  6.000000E+00  0.000000E+00
 7.000000E+00  6.000000E+00  0.000000E+00
 0.000000E+00  7.000000E+00  0.000000E+00
 1.000000E+00  7.000000E+00  0.000000E+00
 2.000000E+00  7.000000E+00  0.000000E+00
 3.000000E+00  7.000000E+00  0.000000E+00
 4.000000E+00  7.000000E+00  0.000000E+00
 5.000000E+00  7.000000E+00  0.000000E+00
 6.000000E+00  7.000000E+00  0.000000E+00
 7.000000E+00  7.000000E+00  0.000000E+00
 0.000000E+00  8.000000E+00  0.000000E+00
 1.000000E+00  8.000000E+00  0.000000E+00
 2.000000E+00  8.000000E+00  0.000000E+00
 3.000000E+00  8.000000E+00  0.000000E+00
 4.000000E+00  8.000000E+00  0.000000E+00
 5.000000E+00  8.000000E+00  0.000000E+00
 6.000000E+00  8.000000E+00  0.000000E+00
 7.000000E+00  8.000000E+00  0.000000E+00
CELLS          112         448
           3           0           9           8
           3           0           1           9
           3           1          10           9
           3           1           2          10
           3           2          11          10
           3           2           3          11
           3           3          12          11
           3           3           4          12
           3           4          13          12
           3           4           5          13
           3           5          14          13
           3           5           6          14
           3           6          15          14
           3           6           7          15
           3           8          17          16
           3           8           9          17
           3           9          18          17
           3           9          10          18
           3          10          19          18
           3          10          11          19
           3          11          20          19
           3          11          12          20
           3          12          21          20
           3          12          13          21
           3          13          22          21
           3          13          14          22
           3          14          23          22
           3          14          15          23
           3          16          25          24
           3          16          17          25
           3          17          26          25
           3          17          18          26
           3          18          27          26
           3          18          19          27
           3          19          28          27
           3          19          20          28
           3          20          29          28
           3          20          21          29
           3          21          30          29
           3          21          22          30
           3          22          31          30
           3          22          23          31
           3          24          33          32
           3          24          25          33
           3          25          34          33
           3          25          26          34
           3          26          35          34
           3          26          27          35
           3          27          36          35
           3          27          28          36
           3          28          37          36
           3          28          29          37
           3          29          38          37
           3          29          30          38
           3          30          39          38
           3          30          31          39
           3          32          41          40
           3          32          33          41
           3          33          42          41
           3          33          34          42
           3          34          43          42
           3          34          35          43
           3          35          44          43
           3          35          36          44
           3          36          45          44
           3          36          37          45
           3          37          46          45
           3          37          38          46
           3          38          47          46
           3          38          39          47
           3          40          49          48
           3          40          41          49
           3          41          50          49
           3          41          42          50
           3          42          51          50
           3          42          43          51
           3          43          52          51
           3          43          44          52
           3          44          53          52
           3          44          45          53
           3          45          54          53
           3          45          46          54
           3          46          55          54
           3          46          47          55
           3          48          57          56
           3          48          49          57
           3          49          58          57
           3          49          50          58
           3          50          59          58
           3          50          51          59
           3          51          60          59
           3          51          52          60
           3          52          61          60
           3          52          53          61
           3          53          62          61
           3          53          54          62
           3          54          63          62
           3          54          55          63
           3          56          65          64
           3          56          57          65
           3          57          66          65
           3          57          58          66
           3          58          67          66
           3          58          59          67
           3          59          68          67
           3          59          60          68
           3          60          69          68
           3          60          61          69
           3          61          70          69
           3          61          62          70
           3          62          71          70
           3          62          63          71
CELL_TYPES          112
5
5
5
5
5
5
5
5
5
5
5
5
5
5
5
5
5
5
5
5
5
5
5
5
5
5
5
5
5
5
5
5
5
5
5
5
5
5
5
5
5
5
5
5
5
5
5
5
5
5
5
5
5
5
5
5
5
5
5
5
5
5
5
5
5
5
5
5
5
5
5
5
5
5
5
5
5
5
5
5
5
5
5
5
5
5
5
5
5
5
5
5
5
5
5
5
5
5
5
5
5
5
5
5
5
5
5
5
5
5
5
5
POINT_DATA           72
 SCALARS measuredDisp11 float  1                   
LOOKUP_TABLE default
 0.00000E+00
 0.00000E+00
 0.00000E+00
 0.00000E+00
 0.00000E+00
 0.00000E+00
 0.00000E+00
 0.00000E+00
 0.00000E+00
 1.59564E-02
 1.08488E-02
 6.08500E-03
 3.14412E-03
 1.29243E-03
 1.83884E-03
 0.00000E+00
 0.00000E+00
-1.45923E-03
 3.24055E-03
 2.55943E-03
 1.94660E-03
 2.35296E-03
 2.85464E-03
 0.00000E+00
 0.00000E+00
-2.71998E-03
 8.33294E-05
 1.17491E-03
 1.02935E-03
 1.66864E-03
 2.79478E-03
 0.00000E+00
 0.00000E+00
-3.29677E-03
-1.44427E-03
 7.56851E-04
 1.60842E-03
 2.20798E-03
 2.66967E-03
 0.00000E+00
 0.00000E+00
-3.69057E-03
-3.33254E-03
-3.18248E-04
 2.33446E-03
 3.61153E-03
 3.27353E-03
 0.00000E+00
 0.00000E+00
-3.54815E-03
-3.73613E-03
-1.59231E-03
 1.53227E-03
 3.77718E-03
 3.59482E-03
 0.00000E+00
 0.00000E+00
-2.73005E-03
-2.94197E-03
-1.47562E-03
 7.88490E-04
 2.69976E-03
 2.98736E-03
 0.00000E+00
 0.00000E+00
 0.00000E+00
 0.00000E+00
 0.00000E+00
 0.00000E+00
 0.00000E+00
 0.00000E+00
 0.00000E+00
 SCALARS measuredDisp12 float  1                   
LOOKUP_TABLE default
 1.00000E-01
 1.00000E-01
 1.00000E-01
 1.00000E-01
 1.00000E-01
 1.00000E-01
 1.00000E-01
 1.00000E-01
 0.00000E+00
 6.93378E-02
 8.05300E-02
 8.22044E-02
 8.23934E-02
 7.97367E-02
 6.62242E-02
 0.00000E+00
 0.00000E+00
 4.35505E-02
 6.38240E-02
 6.56936E-02
 6.57542E-02
 6.28985E-02
 4.58023E-02
 0.00000E+00
 0.00000E+00
 3.08244E-02
 4.96913E-02
 5.39250E-02
 5.30478E-02
 4.85395E-02
 3.25514E-02
 0.00000E+00
 0.00000E+00
 2.19171E-02
 3.83253E-02
 4.50685E-02
 4.43953E-02
 3.81593E-02
 2.31601E-02
 0.00000E+00
 0.00000E+00
 1.51637E-02
 2.66258E-02
 3.43410E-02
 3.50495E-02
 2.87735E-02
 1.62847E-02
 0.00000E+00
 0.00000E+00
 9.68823E-03
 1.67499E-02
 2.13381E-02
 2.21706E-02
 1.86016E-02
 1.07787E-02
 0.00000E+00
 0.00000E+00
 4.82492E-03
 7.95123E-03
 9.92314E-03
 1.03402E-02
 8.95403E-03
 5.72549E-03
 0.00000E+00
 0.00000E+00
 0.00000E+00
 0.00000E+00
 0.00000E+00
 0.00000E+00
 0.00000E+00
 0.00000E+00
 0.00000E+00
 SCALARS predictedDisp11 float  1                  
LOOKUP_TABLE default
 0.00000E+00
 0.00000E+00
 0.00000E+00
 0.00000E+00
 0.00000E+00
 0.00000E+00
 0.00000E+00
 0.00000E+00
 0.00000E+00
 1.58520E-02
 1.10193E-02
 6.11513E-03
 2.78273E-03
 9.82308E-04
 1.69849E-03
 0.00000E+00
 0.00000E+00
-1.29382E-03
 3.45077E-03
 3.17616E-03
 2.24745E-03
 2.13862E-03
 2.76058E-03
 0.00000E+00
 0.00000E+00
-3.21928E-03
-9.12153E-04
 9.39968E-04
 1.58183E-03
 2.30893E-03
 2.95956E-03
 0.00000E+00
 0.00000E+00
-3.69489E-03
-2.43349E-03
-7.43405E-06
 1.70810E-03
 2.90353E-03
 3.11745E-03
 0.00000E+00
 0.00000E+00
-3.72051E-03
-3.37887E-03
-6.73221E-04
 1.99575E-03
 3.63228E-03
 3.47744E-03
 0.00000E+00
 0.00000E+00
-3.43553E-03
-3.50457E-03
-1.41006E-03
 1.50392E-03
 3.56914E-03
 3.44279E-03
 0.00000E+00
 0.00000E+00
-2.62355E-03
-2.74127E-03
-1.31903E-03
 7.59006E-04
 2.52455E-03
 2.83108E-03
 0.00000E+00
 0.00000E+00
 0.00000E+00
 0.00000E+00
 0.00000E+00
 0.00000E+00
 0.00000E+00
 0.00000E+00
 0.00000E+00
 SCALARS predictedDisp12 float  1                  
LOOKUP_TABLE default
 1.00000E-01
 1.00000E-01
 1.00000E-01
 1.00000E-01
 1.00000E-01
 1.00000E-01
 1.00000E-01
 1.00000E-01
 0.00000E+00
 6.91299E-02
 8.05190E-02
 8.30416E-02
 8.30351E-02
 7.96473E-02
 6.60416E-02
 0.00000E+00
 0.00000E+00
 4.37632E-02
 6.42346E-02
 6.84710E-02
 6.78419E-02
 6.26357E-02
 4.55548E-02
 0.00000E+00
 0.00000E+00
 3.11741E-02
 4.93085E-02
 5.53408E-02
 5.46256E-02
 4.84820E-02
 3.24027E-02
 0.00000E+00
 0.00000E+00
 2.21552E-02
 3.73944E-02
 4.40252E-02
 4.35818E-02
 3.73417E-02
 2.33219E-02
 0.00000E+00
 0.00000E+00
 1.53097E-02
 2.61284E-02
 3.23909E-02
 3.27788E-02
 2.75187E-02
 1.64903E-02
 0.00000E+00
 0.00000E+00
 9.72854E-03
 1.64134E-02
 2.03175E-02
 2.10477E-02
 1.79236E-02
 1.07971E-02
 0.00000E+00
 0.00000E+00
 4.80977E-03
 7.77483E-03
 9.47641E-03
 9.84030E-03
 8.63182E-03
 5.67316E-03
 0.00000E+00
 0.00000E+00
 0.00000E+00
 0.00000E+00
 0.00000E+00
 0.00000E+00
 0.00000E+00
 0.00000E+00
 0.00000E+00
 SCALARS dual11 float  1                           
LOOKUP_TABLE default
 0.00000E+00
 0.00000E+00
 0.00000E+00
 0.00000E+00
 0.00000E+00
 0.00000E+00
 0.00000E+00
 0.00000E+00
 0.00000E+00
-2.62435E-05
-9.30179E-05
-6.99478E-05
 4.98910E-05
 9.27425E-05
 4.32110E-05
 0.00000E+00
 0.00000E+00
 6.14565E-05
 5.77185E-06
-1.13563E-04
-1.26793E-04
-4.68321E-05
-9.71129E-06
 0.00000E+00
 0.00000E+00
 2.26184E-04
 2.81063E-04
 9.36642E-05
-1.33865E-04
-2.22478E-04
-1.25493E-04
 0.00000E+00
 0.00000E+00
 2.24051E-04
 3.91110E-04
 2.86954E-04
 3.18408E-05
-1.69105E-04
-1.60079E-04
 0.00000E+00
 0.00000E+00
 7.50972E-05
 1.92046E-04
 2.67208E-04
 1.80138E-04
 3.40092E-05
-4.44389E-05
 0.00000E+00
 0.00000E+00
-5.47984E-05
-5.13100E-05
 4.58866E-05
 1.48558E-04
 1.64633E-04
 9.14042E-05
 0.00000E+00
 0.00000E+00
-8.36570E-05
-1.28271E-04
-7.28855E-05
 5.11527E-05
 1.43503E-04
 1.26427E-04
 0.00000E+00
 0.00000E+00
 0.00000E+00
 0.00000E+00
 0.00000E+00
 0.00000E+00
 0.00000E+00
 0.00000E+00
 0.00000E+00
 SCALARS dual12 float  1                           
LOOKUP_TABLE default
 0.00000E+00
 0.00000E+00
 0.00000E+00
 0.00000E+00
 0.00000E+00
 0.00000E+00
 0.00000E+00
 0.00000E+00
 0.00000E+00
 2.06662E-05
-1.05444E-04
-2.74687E-04
-1.82152E-04
 2.31478E-05
 6.41492E-05
 0.00000E+00
 0.00000E+00
 7.09279E-05
-4.61492E-05
-3.57272E-04
-3.18033E-04
 2.79298E-05
 1.24713E-04
 0.00000E+00
 0.00000E+00
 1.21000E-04
 1.93101E-04
-2.17220E-05
-9.47159E-05
 7.37045E-05
 1.22021E-04
 0.00000E+00
 0.00000E+00
 1.00866E-04
 4.07792E-04
 4.48261E-04
 3.66147E-04
 2.83511E-04
 1.00395E-04
 0.00000E+00
 0.00000E+00
 5.76698E-05
 4.17569E-04
 7.34343E-04
 7.39487E-04
 5.06358E-04
 1.32300E-04
 0.00000E+00
 0.00000E+00
 4.31606E-05
 3.06493E-04
 6.21466E-04
 7.17667E-04
 5.24588E-04
 1.69981E-04
 0.00000E+00
 0.00000E+00
 3.72926E-05
 1.57727E-04
 3.17644E-04
 3.88687E-04
 3.12210E-04
 1.37414E-04
 0.00000E+00
 0.00000E+00
 0.00000E+00
 0.00000E+00
 0.00000E+00
 0.00000E+00
 0.00000E+00
 0.00000E+00
 0.00000E+00
 SCALARS NLP float  1                              
LOOKUP_TABLE default
 2.00000E+00
 2.00000E+00
 2.00000E+00
 2.00000E+00
 2.00000E+00
 2.00000E+00
 2.00000E+00
 2.00000E+00
 2.00000E+00
 2.00000E+00
 2.00000E+00
 2.00000E+00
 2.00000E+00
 2.00000E+00
 2.00000E+00
 2.00000E+00
 2.00000E+00
 2.00000E+00
 2.00000E+00
 2.00000E+00
 2.00000E+00
 2.00000E+00
 2.00000E+00
 2.00000E+00
 2.00000E+00
 2.00000E+00
 2.00000E+00
 2.00000E+00
 2.00000E+00
 2.00000E+00
 2.00000E+00
 2.00000E+00
 2.00000E+00
 2.00000E+00
 2.00000E+00
 2.00000E+00
 2.00000E+00
 2.00000E+00
 2.00000E+00
 2.00000E+00
 2.00000E+00
 2.00000E+00
 2.00000E+00
 2.00000E+00
 2.00000E+00
 2.00000E+00
 2.00000E+00
 2.00000E+00
 2.00000E+00
 2.00000E+00
 2.00000E+00
 2.00000E+00
 2.00000E+00
 2.00000E+00
 2.00000E+00
 2.00000E+00
 2.00000E+00
 2.00000E+00
 2.00000E+00
 2.00000E+00
 2.00000E+00
 2.00000E+00
 2.00000E+00
 2.00000E+00
 2.00000E+00
 2.00000E+00
 2.00000E+00
 2.00000E+00
 2.00000E+00
 2.00000E+00
 2.00000E+00
 2.00000E+00
 SCALARS SM float  1                               
LOOKUP_TABLE default
 1.03758E+00
 1.03874E+00
 1.03679E+00
 1.03226E+00
 1.03648E+00
 1.04421E+00
 1.04460E+00
 1.04300E+00
 1.03555E+00
 1.03900E+00
 1.04343E+00
 1.03716E+00
 1.03945E+00
 1.04449E+00
 1.04317E+00
 1.04141E+00
 1.02990E+00
 1.03595E+00
 1.20919E+00
 1.31258E+00
 1.15070E+00
 1.05321E+00
 1.04117E+00
 1.03716E+00
 1.02535E+00
 1.02748E+00
 1.36266E+00
 1.77706E+00
 1.77641E+00
 1.22662E+00
 1.04132E+00
 1.03611E+00
 1.02078E+00
 1.02161E+00
 1.05407E+00
 1.77697E+00
 1.77589E+00
 1.32232E+00
 1.04330E+00
 1.03650E+00
 1.01262E+00
 1.01234E+00
 1.01345E+00
 1.04635E+00
 1.22904E+00
 1.12076E+00
 1.03429E+00
 1.02901E+00
 1.00481E+00
 1.00396E+00
 1.00140E+00
 1.00000E+00
 1.00087E+00
 1.00304E+00
 1.00349E+00
 1.00481E+00
 1.00127E+00
 1.00064E+00
 1.00000E+00
 1.00000E+00
 1.00000E+00
 1.00000E+00
 1.00000E+00
 1.00015E+00
 1.00069E+00
 1.00011E+00
 1.00000E+00
 1.00000E+00
 1.00000E+00
 1.00000E+00
 1.00000E+00
 1.00000E+00
 SCALARS gradient1 float  1                        
LOOKUP_TABLE default
 0.00000E+00
 0.00000E+00
 0.00000E+00
 0.00000E+00
 0.00000E+00
 0.00000E+00
 0.00000E+00
 0.00000E+00
 0.00000E+00
 0.00000E+00
 0.00000E+00
 0.00000E+00
 0.00000E+00
 0.00000E+00
 0.00000E+00
 0.00000E+00
 0.00000E+00
 0.00000E+00
 0.00000E+00
 0.00000E+00
 0.00000E+00
 0.00000E+00
 0.00000E+00
 0.00000E+00
 0.00000E+00
 0.00000E+00
 0.00000E+00
 0.00000E+00
 0.00000E+00
 0.00000E+00
 0.00000E+00
 0.00000E+00
 0.00000E+00
 0.00000E+00
 0.00000E+00
 0.00000E+00
 0.00000E+00
 0.00000E+00
 0.00000E+00
 0.00000E+00
 0.00000E+00
 0.00000E+00
 0.00000E+00
 0.00000E+00
 0.00000E+00
 0.00000E+00
 0.00000E+00
 0.00000E+00
 0.00000E+00
 0.00000E+00
 0.00000E+00
 0.00000E+00
 0.00000E+00
 0.00000E+00
 0.00000E+00
 0.00000E+00
 0.00000E+00
 0.00000E+00
 0.00000E+00
 0.00000E+00
 0.00000E+00
 0.00000E+00
 0.00000E+00
 0.00000E+00
 0.00000E+00
 0.00000E+00
 0.00000E+00
 0.00000E+00
 0.00000E+00
 0.00000E+00
 0.00000E+00
 0.00000E+00
 SCALARS gradient2 float  1                        
LOOKUP_TABLE default
-1.11009E-10
 2.50572E-10
-2.58883E-11
 2.33085E-11
-9.31212E-11
-1.12773E-10
 1.46815E-10
 1.18893E-10
 1.51355E-10
-5.06427E-10
 7.78674E-11
-4.12879E-12
-1.69467E-10
 2.33507E-10
-3.44708E-10
 1.71001E-10
 5.40549E-11
 6.79711E-11
 7.91982E-12
 1.06361E-10
-4.19842E-10
 3.72815E-10
 1.84786E-10
-1.06983E-10
-2.57217E-11
 2.39043E-11
 1.28912E-11
 1.19789E-11
-4.23731E-12
 3.10720E-10
-1.98549E-10
-1.30615E-10
-2.85065E-10
-3.28992E-10
-5.21671E-11
 9.97880E-11
 8.19836E-11
 2.84554E-10
-2.45280E-10
-2.19141E-10
-1.97539E-10
-2.55248E-10
-2.36152E-10
-7.94125E-12
-8.28644E-11
 9.88711E-11
-1.18804E-10
-7.06869E-11
-3.18763E-11
 5.20193E-10
-2.48720E-10
 1.59330E-07
 3.00266E-11
 1.53892E-11
 7.06245E-11
 7.95898E-11
 6.19483E-11
-6.45769E-10
 2.48479E-06
 6.49112E-06
 7.14439E-06
 4.10197E-06
 9.38864E-07
 2.65491E-11
-5.31350E-10
-4.17127E-11
 1.18259E-06
 2.63360E-06
 3.66034E-06
 3.32962E-06
 1.82698E-06
 5.32364E-07
CELL_DATA         112
SCALARS elemDataMatch  float  1
LOOKUP_TABLE default
 2.25509E-09
 2.25509E-09
 2.82437E-09
 1.21583E-09
 3.02882E-08
 2.92405E-08
 7.37701E-08
 2.25993E-08
 2.92182E-08
 4.34070E-09
 9.04473E-09
 2.20993E-09
 2.20993E-09
 0.00000E+00
 3.02447E-09
 2.71782E-09
 1.21989E-08
 8.52421E-09
 4.04679E-07
 4.68322E-07
 9.72078E-07
 3.83643E-07
 2.34713E-07
 3.39602E-08
 2.14906E-08
 1.65357E-08
 7.56320E-09
 2.20993E-09
 1.54834E-08
 1.81654E-08
 7.04420E-08
 3.88523E-08
 1.36134E-07
 6.64827E-07
 9.81781E-07
 1.22938E-06
 4.77197E-07
 1.79776E-07
 2.38867E-08
 1.43608E-08
 5.86115E-09
 2.92043E-09
 8.96562E-09
 3.62005E-08
 1.27273E-07
 2.17792E-07
 3.70162E-07
 1.84347E-07
 1.12654E-07
 2.17767E-07
 1.34121E-07
 1.75410E-07
 1.14219E-07
 4.71006E-08
 1.35699E-08
 2.05294E-09
 9.25398E-10
 1.18358E-08
 1.51008E-08
 1.20459E-07
 4.03573E-07
 5.68601E-07
 8.48115E-07
 5.34538E-07
 5.49835E-07
 2.58189E-07
 1.48809E-07
 7.25131E-08
 1.81298E-08
 9.44519E-09
 5.96159E-10
 1.62629E-09
 6.76357E-09
 1.94985E-08
 1.05531E-07
 3.61035E-07
 4.80504E-07
 8.23735E-07
 4.98859E-07
 5.26993E-07
 1.22533E-07
 5.72911E-08
 3.33722E-09
 3.49408E-09
 4.82131E-10
 1.55256E-09
 6.17474E-09
 1.60988E-08
 3.60394E-08
 1.05102E-07
 1.14905E-07
 1.99802E-07
 1.14259E-07
 1.37011E-07
 4.29947E-08
 2.76494E-08
 3.05876E-09
 9.77129E-10
 0.00000E+00
 4.82131E-10
 4.82131E-10
 4.45885E-09
 2.97479E-09
 1.69046E-08
 9.33695E-09
 2.88982E-08
 1.04487E-08
 2.29803E-08
 5.60498E-09
 8.58025E-09
 1.13178E-09
 1.13178E-09
SCALARS elemRegul  float  1
LOOKUP_TABLE default
 2.69253E-08
 2.51762E-08
 2.73555E-08
 3.04113E-08
 3.38748E-08
 3.00575E-08
 2.84251E-08
 2.81379E-08
 2.89618E-08
 3.16012E-08
 2.52283E-08
 2.52752E-08
 2.56365E-08
 2.56301E-08
 3.24477E-08
 2.75240E-08
 4.33895E-07
 4.15288E-07
 4.89031E-07
 6.89195E-07
 7.99078E-07
 2.79302E-07
 3.70641E-07
 3.54860E-08
 4.48091E-08
 2.57094E-08
 2.73942E-08
 2.75172E-08
 2.79802E-08
 3.60673E-08
 8.38590E-07
 5.79157E-07
 1.10504E-06
 1.18989E-06
 1.16147E-06
 1.61598E-06
 2.08251E-06
 4.97946E-07
 6.34945E-07
 3.91459E-08
 2.81892E-08
 2.70613E-08
 2.75677E-08
 2.94871E-08
 8.61884E-08
 1.13929E-06
 1.96519E-06
 1.03629E-06
 2.51477E-08
 2.50871E-08
 1.13420E-06
 1.39539E-06
 7.37867E-07
 4.63952E-07
 3.06341E-08
 2.82037E-08
 3.22660E-08
 3.41486E-08
 3.41992E-08
 1.32383E-07
 1.33052E-07
 2.56965E-06
 1.88296E-06
 1.36734E-06
 1.39388E-06
 1.24109E-06
 5.48877E-07
 6.98363E-07
 3.61413E-08
 3.55541E-08
 3.17998E-08
 3.26267E-08
 3.32400E-08
 3.92487E-08
 3.93058E-08
 1.44278E-07
 1.18559E-07
 7.31165E-07
 5.70989E-07
 4.00646E-07
 2.95368E-07
 2.30844E-07
 8.10145E-08
 6.67858E-08
 2.65678E-08
 2.64238E-08
 2.63864E-08
 2.60408E-08
 2.52431E-08
 2.52431E-08
 2.50000E-08
 2.51907E-08
 2.50955E-08
 2.66852E-08
 2.61301E-08
 2.65049E-08
 2.64833E-08
 2.77814E-08
 2.50832E-08
 2.50838E-08
 2.50365E-08
 2.50514E-08
 2.50000E-08
 2.50000E-08
 2.50000E-08
 2.50000E-08
 2.50000E-08
 2.50000E-08
 2.50000E-08
 2.50000E-08
 2.50000E-08
 2.50053E-08
SCALARS l2grad2  float  1
LOOKUP_TABLE default
 3.99941E-03
 1.18927E-03
 4.44202E-03
 6.92643E-03
 9.14332E-03
 6.67479E-03
 5.41086E-03
 5.16513E-03
 5.84856E-03
 7.73189E-03
 1.35452E-03
 1.48775E-03
 2.27085E-03
 2.25922E-03
 8.27387E-03
 4.60561E-03
 1.73270E-01
 1.65814E-01
 1.95357E-01
 2.75497E-01
 3.19475E-01
 1.11272E-01
 1.47919E-01
 1.00738E-02
 1.48747E-02
 2.39917E-03
 4.48002E-03
 4.59909E-03
 5.02623E-03
 1.03988E-02
 3.35287E-01
 2.31447E-01
 4.41904E-01
 4.75849E-01
 4.64482E-01
 6.46314E-01
 8.32943E-01
 1.98927E-01
 2.53781E-01
 1.20493E-02
 5.20966E-03
 4.14366E-03
 4.64718E-03
 6.25447E-03
 3.29932E-02
 4.55605E-01
 7.86013E-01
 4.14397E-01
 1.08875E-03
 8.35515E-04
 4.53568E-01
 5.58065E-01
 2.94977E-01
 1.85311E-01
 7.08182E-03
 5.22221E-03
 8.15938E-03
 9.30487E-03
 9.33455E-03
 5.20004E-02
 5.22728E-02
 1.02781E+00
 7.53117E-01
 5.46846E-01
 5.57462E-01
 4.96335E-01
 2.19323E-01
 2.79166E-01
 1.04399E-02
 1.01121E-02
 7.86109E-03
 8.38574E-03
 8.76265E-03
 1.21026E-02
 1.21323E-02
 5.68384E-02
 4.63572E-02
 2.92295E-01
 2.28176E-01
 1.59946E-01
 1.17723E-01
 9.17943E-02
 3.08243E-02
 2.47720E-02
 3.59657E-03
 3.42266E-03
 3.37622E-03
 2.91550E-03
 1.39805E-03
 1.39805E-03
 0.00000E+00
 1.23738E-03
 8.74958E-04
 3.73305E-03
 3.04064E-03
 3.52156E-03
 3.49549E-03
 4.84657E-03
 8.16608E-04
 8.19490E-04
 5.40788E-04
 6.41830E-04
 0.00000E+00
 0.00000E+00
 0.00000E+00
 0.00000E+00
 0.00000E+00
 0.00000E+00
 0.00000E+00
 0.00000E+00
 0.00000E+00
 2.05856E-04
