# vtk DataFile Version 2.0
Output of NLACE
ASCII
DATASET UNSTRUCTURED_GRID
POINTS           72 FLOAT
 0.000000E+00  0.000000E+00  0.000000E+00
 1.000000E+00  0.000000E+00  0.000000E+00
 2.000000E+00  0.000000E+00  0.000000E+00
 3.000000E+00  0.000000E+00  0.000000E+00
 4.000000E+00  0.000000E+00  0.000000E+00
 5.000000E+00  0.000000E+00  0.000000E+00
 6.000000E+00  0.000000E+00  0.000000E+00
 7.000000E+00  0.000000E+00  0.000000E+00
 0.000000E+00  1.000000E+00  0.000000E+00
 1.000000E+00  1.000000E+00  0.000000E+00
 2.000000E+00  1.000000E+00  0.000000E+00
 3.000000E+00  1.000000E+00  0.000000E+00
 4.000000E+00  1.000000E+00  0.000000E+00
 5.000000E+00  1.000000E+00  0.000000E+00
 6.000000E+00  1.000000E+00  0.000000E+00
 7.000000E+00  1.000000E+00  0.000000E+00
 0.000000E+00  2.000000E+00  0.000000E+00
 1.000000E+00  2.000000E+00  0.000000E+00
 2.000000E+00  2.000000E+00  0.000000E+00
 3.000000E+00  2.000000E+00  0.000000E+00
 4.000000E+00  2.000000E+00  0.000000E+00
 5.000000E+00  2.000000E+00  0.000000E+00
 6.000000E+00  2.000000E+00  0.000000E+00
 7.000000E+00  2.000000E+00  0.000000E+00
 0.000000E+00  3.000000E+00  0.000000E+00
 1.000000E+00  3.000000E+00  0.000000E+00
 2.000000E+00  3.000000E+00  0.000000E+00
 3.000000E+00  3.000000E+00  0.000000E+00
 4.000000E+00  3.000000E+00  0.000000E+00
 5.000000E+00  3.000000E+00  0.000000E+00
 6.000000E+00  3.000000E+00  0.000000E+00
 7.000000E+00  3.000000E+00  0.000000E+00
 0.000000E+00  4.000000E+00  0.000000E+00
 1.000000E+00  4.000000E+00  0.000000E+00
 2.000000E+00  4.000000E+00  0.000000E+00
 3.000000E+00  4.000000E+00  0.000000E+00
 4.000000E+00  4.000000E+00  0.000000E+00
 5.000000E+00  4.000000E+00  0.000000E+00
 6.000000E+00  4.000000E+00  0.000000E+00
 7.000000E+00  4.000000E+00  0.000000E+00
 0.000000E+00  5.000000E+00  0.000000E+00
 1.000000E+00  5.000000E+00  0.000000E+00
 2.000000E+00  5.000000E+00  0.000000E+00
 3.000000E+00  5.000000E+00  0.000000E+00
 4.000000E+00  5.000000E+00  0.000000E+00
 5.000000E+00  5.000000E+00  0.000000E+00
 6.000000E+00  5.000000E+00  0.000000E+00
 7.000000E+00  5.000000E+00  0.000000E+00
 0.000000E+00  6.000000E+00  0.000000E+00
 1.000000E+00  6.000000E+00  0.000000E+00
 2.000000E+00  6.000000E+00  0.000000E+00
 3.000000E+00  6.000000E+00  0.000000E+00
 4.000000E+00  6.000000E+00  0.000000E+00
 5.000000E+00  6.000000E+00  0.000000E+00
 6.000000E+00  6.000000E+00  0.000000E+00
 7.000000E+00  6.000000E+00  0.000000E+00
 0.000000E+00  7.000000E+00  0.000000E+00
 1.000000E+00  7.000000E+00  0.000000E+00
 2.000000E+00  7.000000E+00  0.000000E+00
 3.000000E+00  7.000000E+00  0.000000E+00
 4.000000E+00  7.000000E+00  0.000000E+00
 5.000000E+00  7.000000E+00  0.000000E+00
 6.000000E+00  7.000000E+00  0.000000E+00
 7.000000E+00  7.000000E+00  0.000000E+00
 0.000000E+00  8.000000E+00  0.000000E+00
 1.000000E+00  8.000000E+00  0.000000E+00
 2.000000E+00  8.000000E+00  0.000000E+00
 3.000000E+00  8.000000E+00  0.000000E+00
 4.000000E+00  8.000000E+00  0.000000E+00
 5.000000E+00  8.000000E+00  0.000000E+00
 6.000000E+00  8.000000E+00  0.000000E+00
 7.000000E+00  8.000000E+00  0.000000E+00
CELLS          112         448
           3           0           9           8
           3           0           1           9
           3           1          10           9
           3           1           2          10
           3           2          11          10
           3           2           3          11
           3           3          12          11
           3           3           4          12
           3           4          13          12
           3           4           5          13
           3           5          14          13
           3           5           6          14
           3           6          15          14
           3           6           7          15
           3           8          17          16
           3           8           9          17
           3           9          18          17
           3           9          10          18
           3          10          19          18
           3          10          11          19
           3          11          20          19
           3          11          12          20
           3          12          21          20
           3          12          13          21
           3          13          22          21
           3          13          14          22
           3          14          23          22
           3          14          15          23
           3          16          25          24
           3          16          17          25
           3          17          26          25
           3          17          18          26
           3          18          27          26
           3          18          19          27
           3          19          28          27
           3          19          20          28
           3          20          29          28
           3          20          21          29
           3          21          30          29
           3          21          22          30
           3          22          31          30
           3          22          23          31
           3          24          33          32
           3          24          25          33
           3          25          34          33
           3          25          26          34
           3          26          35          34
           3          26          27          35
           3          27          36          35
           3          27          28          36
           3          28          37          36
           3          28          29          37
           3          29          38          37
           3          29          30          38
           3          30          39          38
           3          30          31          39
           3          32          41          40
           3          32          33          41
           3          33          42          41
           3          33          34          42
           3          34          43          42
           3          34          35          43
           3          35          44          43
           3          35          36          44
           3          36          45          44
           3          36          37          45
           3          37          46          45
           3          37          38          46
           3          38          47          46
           3          38          39          47
           3          40          49          48
           3          40          41          49
           3          41          50          49
           3          41          42          50
           3          42          51          50
           3          42          43          51
           3          43          52          51
           3          43          44          52
           3          44          53          52
           3          44          45          53
           3          45          54          53
           3          45          46          54
           3          46          55          54
           3          46          47          55
           3          48          57          56
           3          48          49          57
           3          49          58          57
           3          49          50          58
           3          50          59          58
           3          50          51          59
           3          51          60          59
           3          51          52          60
           3          52          61          60
           3          52          53          61
           3          53          62          61
           3          53          54          62
           3          54          63          62
           3          54          55          63
           3          56          65          64
           3          56          57          65
           3          57          66          65
           3          57          58          66
           3          58          67          66
           3          58          59          67
           3          59          68          67
           3          59          60          68
           3          60          69          68
           3          60          61          69
           3          61          70          69
           3          61          62          70
           3          62          71          70
           3          62          63          71
CELL_TYPES          112
5
5
5
5
5
5
5
5
5
5
5
5
5
5
5
5
5
5
5
5
5
5
5
5
5
5
5
5
5
5
5
5
5
5
5
5
5
5
5
5
5
5
5
5
5
5
5
5
5
5
5
5
5
5
5
5
5
5
5
5
5
5
5
5
5
5
5
5
5
5
5
5
5
5
5
5
5
5
5
5
5
5
5
5
5
5
5
5
5
5
5
5
5
5
5
5
5
5
5
5
5
5
5
5
5
5
5
5
5
5
5
5
POINT_DATA           72
 SCALARS predictedDisp11 float  1                  
LOOKUP_TABLE default
 0.00000E+00
 0.00000E+00
 0.00000E+00
 0.00000E+00
 0.00000E+00
 0.00000E+00
 0.00000E+00
 0.00000E+00
 0.00000E+00
 1.59564E-02
 1.08488E-02
 6.08500E-03
 3.14412E-03
 1.29243E-03
 1.83884E-03
 0.00000E+00
 0.00000E+00
-1.45923E-03
 3.24055E-03
 2.55943E-03
 1.94660E-03
 2.35296E-03
 2.85464E-03
 0.00000E+00
 0.00000E+00
-2.71998E-03
 8.33294E-05
 1.17491E-03
 1.02935E-03
 1.66864E-03
 2.79478E-03
 0.00000E+00
 0.00000E+00
-3.29677E-03
-1.44427E-03
 7.56851E-04
 1.60842E-03
 2.20798E-03
 2.66967E-03
 0.00000E+00
 0.00000E+00
-3.69057E-03
-3.33254E-03
-3.18248E-04
 2.33446E-03
 3.61153E-03
 3.27353E-03
 0.00000E+00
 0.00000E+00
-3.54815E-03
-3.73613E-03
-1.59231E-03
 1.53227E-03
 3.77718E-03
 3.59482E-03
 0.00000E+00
 0.00000E+00
-2.73005E-03
-2.94197E-03
-1.47562E-03
 7.88490E-04
 2.69976E-03
 2.98736E-03
 0.00000E+00
 0.00000E+00
 0.00000E+00
 0.00000E+00
 0.00000E+00
 0.00000E+00
 0.00000E+00
 0.00000E+00
 0.00000E+00
 SCALARS predictedDisp12 float  1                  
LOOKUP_TABLE default
 1.00000E-01
 1.00000E-01
 1.00000E-01
 1.00000E-01
 1.00000E-01
 1.00000E-01
 1.00000E-01
 1.00000E-01
 0.00000E+00
 6.93378E-02
 8.05300E-02
 8.22044E-02
 8.23934E-02
 7.97367E-02
 6.62242E-02
 0.00000E+00
 0.00000E+00
 4.35505E-02
 6.38240E-02
 6.56936E-02
 6.57542E-02
 6.28985E-02
 4.58023E-02
 0.00000E+00
 0.00000E+00
 3.08244E-02
 4.96913E-02
 5.39250E-02
 5.30478E-02
 4.85395E-02
 3.25514E-02
 0.00000E+00
 0.00000E+00
 2.19171E-02
 3.83253E-02
 4.50685E-02
 4.43953E-02
 3.81593E-02
 2.31601E-02
 0.00000E+00
 0.00000E+00
 1.51637E-02
 2.66258E-02
 3.43410E-02
 3.50495E-02
 2.87735E-02
 1.62847E-02
 0.00000E+00
 0.00000E+00
 9.68823E-03
 1.67499E-02
 2.13381E-02
 2.21706E-02
 1.86016E-02
 1.07787E-02
 0.00000E+00
 0.00000E+00
 4.82492E-03
 7.95123E-03
 9.92314E-03
 1.03402E-02
 8.95403E-03
 5.72549E-03
 0.00000E+00
 0.00000E+00
 0.00000E+00
 0.00000E+00
 0.00000E+00
 0.00000E+00
 0.00000E+00
 0.00000E+00
 0.00000E+00
 SCALARS NLP float  1                              
LOOKUP_TABLE default
 2.00000E+00
 2.00000E+00
 2.00000E+00
 2.00000E+00
 2.00000E+00
 2.00000E+00
 2.00000E+00
 2.00000E+00
 2.00000E+00
 2.00000E+00
 2.00000E+00
 2.00000E+00
 2.00000E+00
 2.00000E+00
 2.00000E+00
 2.00000E+00
 2.00000E+00
 2.00000E+00
 2.00000E+00
 2.00000E+00
 2.00000E+00
 2.00000E+00
 2.00000E+00
 2.00000E+00
 2.00000E+00
 2.00000E+00
 2.00000E+00
 2.00000E+00
 2.00000E+00
 2.00000E+00
 2.00000E+00
 2.00000E+00
 2.00000E+00
 2.00000E+00
 2.00000E+00
 2.00000E+00
 2.00000E+00
 2.00000E+00
 2.00000E+00
 2.00000E+00
 2.00000E+00
 2.00000E+00
 2.00000E+00
 2.00000E+00
 2.00000E+00
 2.00000E+00
 2.00000E+00
 2.00000E+00
 2.00000E+00
 2.00000E+00
 2.00000E+00
 2.00000E+00
 2.00000E+00
 2.00000E+00
 2.00000E+00
 2.00000E+00
 2.00000E+00
 2.00000E+00
 2.00000E+00
 2.00000E+00
 2.00000E+00
 2.00000E+00
 2.00000E+00
 2.00000E+00
 2.00000E+00
 2.00000E+00
 2.00000E+00
 2.00000E+00
 2.00000E+00
 2.00000E+00
 2.00000E+00
 2.00000E+00
 SCALARS SM float  1                               
LOOKUP_TABLE default
 1.00000E+00
 1.00000E+00
 1.00000E+00
 1.00000E+00
 1.00000E+00
 1.00000E+00
 1.00000E+00
 1.00000E+00
 1.00000E+00
 1.00000E+00
 1.00000E+00
 1.00000E+00
 1.00000E+00
 1.00000E+00
 1.00000E+00
 1.00000E+00
 1.00000E+00
 1.00000E+00
 1.00000E+00
 1.00000E+00
 1.00000E+00
 1.00000E+00
 1.00000E+00
 1.00000E+00
 1.00000E+00
 1.00000E+00
 1.00000E+00
 3.00000E+00
 3.00000E+00
 1.00000E+00
 1.00000E+00
 1.00000E+00
 1.00000E+00
 1.00000E+00
 1.00000E+00
 3.00000E+00
 3.00000E+00
 1.00000E+00
 1.00000E+00
 1.00000E+00
 1.00000E+00
 1.00000E+00
 1.00000E+00
 1.00000E+00
 1.00000E+00
 1.00000E+00
 1.00000E+00
 1.00000E+00
 1.00000E+00
 1.00000E+00
 1.00000E+00
 1.00000E+00
 1.00000E+00
 1.00000E+00
 1.00000E+00
 1.00000E+00
 1.00000E+00
 1.00000E+00
 1.00000E+00
 1.00000E+00
 1.00000E+00
 1.00000E+00
 1.00000E+00
 1.00000E+00
 1.00000E+00
 1.00000E+00
 1.00000E+00
 1.00000E+00
 1.00000E+00
 1.00000E+00
 1.00000E+00
 1.00000E+00
