# vtk DataFile Version 2.0
Output of NLACE
ASCII
DATASET UNSTRUCTURED_GRID
POINTS           72 FLOAT
 0.000000E+00  0.000000E+00  0.000000E+00
 1.000000E+00  0.000000E+00  0.000000E+00
 2.000000E+00  0.000000E+00  0.000000E+00
 3.000000E+00  0.000000E+00  0.000000E+00
 4.000000E+00  0.000000E+00  0.000000E+00
 5.000000E+00  0.000000E+00  0.000000E+00
 6.000000E+00  0.000000E+00  0.000000E+00
 7.000000E+00  0.000000E+00  0.000000E+00
 0.000000E+00  1.000000E+00  0.000000E+00
 1.000000E+00  1.000000E+00  0.000000E+00
 2.000000E+00  1.000000E+00  0.000000E+00
 3.000000E+00  1.000000E+00  0.000000E+00
 4.000000E+00  1.000000E+00  0.000000E+00
 5.000000E+00  1.000000E+00  0.000000E+00
 6.000000E+00  1.000000E+00  0.000000E+00
 7.000000E+00  1.000000E+00  0.000000E+00
 0.000000E+00  2.000000E+00  0.000000E+00
 1.000000E+00  2.000000E+00  0.000000E+00
 2.000000E+00  2.000000E+00  0.000000E+00
 3.000000E+00  2.000000E+00  0.000000E+00
 4.000000E+00  2.000000E+00  0.000000E+00
 5.000000E+00  2.000000E+00  0.000000E+00
 6.000000E+00  2.000000E+00  0.000000E+00
 7.000000E+00  2.000000E+00  0.000000E+00
 0.000000E+00  3.000000E+00  0.000000E+00
 1.000000E+00  3.000000E+00  0.000000E+00
 2.000000E+00  3.000000E+00  0.000000E+00
 3.000000E+00  3.000000E+00  0.000000E+00
 4.000000E+00  3.000000E+00  0.000000E+00
 5.000000E+00  3.000000E+00  0.000000E+00
 6.000000E+00  3.000000E+00  0.000000E+00
 7.000000E+00  3.000000E+00  0.000000E+00
 0.000000E+00  4.000000E+00  0.000000E+00
 1.000000E+00  4.000000E+00  0.000000E+00
 2.000000E+00  4.000000E+00  0.000000E+00
 3.000000E+00  4.000000E+00  0.000000E+00
 4.000000E+00  4.000000E+00  0.000000E+00
 5.000000E+00  4.000000E+00  0.000000E+00
 6.000000E+00  4.000000E+00  0.000000E+00
 7.000000E+00  4.000000E+00  0.000000E+00
 0.000000E+00  5.000000E+00  0.000000E+00
 1.000000E+00  5.000000E+00  0.000000E+00
 2.000000E+00  5.000000E+00  0.000000E+00
 3.000000E+00  5.000000E+00  0.000000E+00
 4.000000E+00  5.000000E+00  0.000000E+00
 5.000000E+00  5.000000E+00  0.000000E+00
 6.000000E+00  5.000000E+00  0.000000E+00
 7.000000E+00  5.000000E+00  0.000000E+00
 0.000000E+00  6.000000E+00  0.000000E+00
 1.000000E+00  6.000000E+00  0.000000E+00
 2.000000E+00  6.000000E+00  0.000000E+00
 3.000000E+00  6.000000E+00  0.000000E+00
 4.000000E+00  6.000000E+00  0.000000E+00
 5.000000E+00  6.000000E+00  0.000000E+00
 6.000000E+00  6.000000E+00  0.000000E+00
 7.000000E+00  6.000000E+00  0.000000E+00
 0.000000E+00  7.000000E+00  0.000000E+00
 1.000000E+00  7.000000E+00  0.000000E+00
 2.000000E+00  7.000000E+00  0.000000E+00
 3.000000E+00  7.000000E+00  0.000000E+00
 4.000000E+00  7.000000E+00  0.000000E+00
 5.000000E+00  7.000000E+00  0.000000E+00
 6.000000E+00  7.000000E+00  0.000000E+00
 7.000000E+00  7.000000E+00  0.000000E+00
 0.000000E+00  8.000000E+00  0.000000E+00
 1.000000E+00  8.000000E+00  0.000000E+00
 2.000000E+00  8.000000E+00  0.000000E+00
 3.000000E+00  8.000000E+00  0.000000E+00
 4.000000E+00  8.000000E+00  0.000000E+00
 5.000000E+00  8.000000E+00  0.000000E+00
 6.000000E+00  8.000000E+00  0.000000E+00
 7.000000E+00  8.000000E+00  0.000000E+00
CELLS          112         448
           3           0           9           8
           3           0           1           9
           3           1          10           9
           3           1           2          10
           3           2          11          10
           3           2           3          11
           3           3          12          11
           3           3           4          12
           3           4          13          12
           3           4           5          13
           3           5          14          13
           3           5           6          14
           3           6          15          14
           3           6           7          15
           3           8          17          16
           3           8           9          17
           3           9          18          17
           3           9          10          18
           3          10          19          18
           3          10          11          19
           3          11          20          19
           3          11          12          20
           3          12          21          20
           3          12          13          21
           3          13          22          21
           3          13          14          22
           3          14          23          22
           3          14          15          23
           3          16          25          24
           3          16          17          25
           3          17          26          25
           3          17          18          26
           3          18          27          26
           3          18          19          27
           3          19          28          27
           3          19          20          28
           3          20          29          28
           3          20          21          29
           3          21          30          29
           3          21          22          30
           3          22          31          30
           3          22          23          31
           3          24          33          32
           3          24          25          33
           3          25          34          33
           3          25          26          34
           3          26          35          34
           3          26          27          35
           3          27          36          35
           3          27          28          36
           3          28          37          36
           3          28          29          37
           3          29          38          37
           3          29          30          38
           3          30          39          38
           3          30          31          39
           3          32          41          40
           3          32          33          41
           3          33          42          41
           3          33          34          42
           3          34          43          42
           3          34          35          43
           3          35          44          43
           3          35          36          44
           3          36          45          44
           3          36          37          45
           3          37          46          45
           3          37          38          46
           3          38          47          46
           3          38          39          47
           3          40          49          48
           3          40          41          49
           3          41          50          49
           3          41          42          50
           3          42          51          50
           3          42          43          51
           3          43          52          51
           3          43          44          52
           3          44          53          52
           3          44          45          53
           3          45          54          53
           3          45          46          54
           3          46          55          54
           3          46          47          55
           3          48          57          56
           3          48          49          57
           3          49          58          57
           3          49          50          58
           3          50          59          58
           3          50          51          59
           3          51          60          59
           3          51          52          60
           3          52          61          60
           3          52          53          61
           3          53          62          61
           3          53          54          62
           3          54          63          62
           3          54          55          63
           3          56          65          64
           3          56          57          65
           3          57          66          65
           3          57          58          66
           3          58          67          66
           3          58          59          67
           3          59          68          67
           3          59          60          68
           3          60          69          68
           3          60          61          69
           3          61          70          69
           3          61          62          70
           3          62          71          70
           3          62          63          71
CELL_TYPES          112
5
5
5
5
5
5
5
5
5
5
5
5
5
5
5
5
5
5
5
5
5
5
5
5
5
5
5
5
5
5
5
5
5
5
5
5
5
5
5
5
5
5
5
5
5
5
5
5
5
5
5
5
5
5
5
5
5
5
5
5
5
5
5
5
5
5
5
5
5
5
5
5
5
5
5
5
5
5
5
5
5
5
5
5
5
5
5
5
5
5
5
5
5
5
5
5
5
5
5
5
5
5
5
5
5
5
5
5
5
5
5
5
POINT_DATA           72
 SCALARS measuredDisp11 float  1                   
LOOKUP_TABLE default
 0.00000E+00
 0.00000E+00
 0.00000E+00
 0.00000E+00
 0.00000E+00
 0.00000E+00
 0.00000E+00
 0.00000E+00
 0.00000E+00
 1.59564E-02
 1.08488E-02
 6.08500E-03
 3.14412E-03
 1.29243E-03
 1.83884E-03
 0.00000E+00
 0.00000E+00
-1.45923E-03
 3.24055E-03
 2.55943E-03
 1.94660E-03
 2.35296E-03
 2.85464E-03
 0.00000E+00
 0.00000E+00
-2.71998E-03
 8.33294E-05
 1.17491E-03
 1.02935E-03
 1.66864E-03
 2.79478E-03
 0.00000E+00
 0.00000E+00
-3.29677E-03
-1.44427E-03
 7.56851E-04
 1.60842E-03
 2.20798E-03
 2.66967E-03
 0.00000E+00
 0.00000E+00
-3.69057E-03
-3.33254E-03
-3.18248E-04
 2.33446E-03
 3.61153E-03
 3.27353E-03
 0.00000E+00
 0.00000E+00
-3.54815E-03
-3.73613E-03
-1.59231E-03
 1.53227E-03
 3.77718E-03
 3.59482E-03
 0.00000E+00
 0.00000E+00
-2.73005E-03
-2.94197E-03
-1.47562E-03
 7.88490E-04
 2.69976E-03
 2.98736E-03
 0.00000E+00
 0.00000E+00
 0.00000E+00
 0.00000E+00
 0.00000E+00
 0.00000E+00
 0.00000E+00
 0.00000E+00
 0.00000E+00
 SCALARS measuredDisp12 float  1                   
LOOKUP_TABLE default
 1.00000E-01
 1.00000E-01
 1.00000E-01
 1.00000E-01
 1.00000E-01
 1.00000E-01
 1.00000E-01
 1.00000E-01
 0.00000E+00
 6.93378E-02
 8.05300E-02
 8.22044E-02
 8.23934E-02
 7.97367E-02
 6.62242E-02
 0.00000E+00
 0.00000E+00
 4.35505E-02
 6.38240E-02
 6.56936E-02
 6.57542E-02
 6.28985E-02
 4.58023E-02
 0.00000E+00
 0.00000E+00
 3.08244E-02
 4.96913E-02
 5.39250E-02
 5.30478E-02
 4.85395E-02
 3.25514E-02
 0.00000E+00
 0.00000E+00
 2.19171E-02
 3.83253E-02
 4.50685E-02
 4.43953E-02
 3.81593E-02
 2.31601E-02
 0.00000E+00
 0.00000E+00
 1.51637E-02
 2.66258E-02
 3.43410E-02
 3.50495E-02
 2.87735E-02
 1.62847E-02
 0.00000E+00
 0.00000E+00
 9.68823E-03
 1.67499E-02
 2.13381E-02
 2.21706E-02
 1.86016E-02
 1.07787E-02
 0.00000E+00
 0.00000E+00
 4.82492E-03
 7.95123E-03
 9.92314E-03
 1.03402E-02
 8.95403E-03
 5.72549E-03
 0.00000E+00
 0.00000E+00
 0.00000E+00
 0.00000E+00
 0.00000E+00
 0.00000E+00
 0.00000E+00
 0.00000E+00
 0.00000E+00
 SCALARS predictedDisp11 float  1                  
LOOKUP_TABLE default
 0.00000E+00
 0.00000E+00
 0.00000E+00
 0.00000E+00
 0.00000E+00
 0.00000E+00
 0.00000E+00
 0.00000E+00
 0.00000E+00
 1.64984E-02
 1.19403E-02
 6.72475E-03
 2.85980E-03
 8.21567E-04
 1.62669E-03
 0.00000E+00
 0.00000E+00
-1.81149E-03
 3.73150E-03
 4.06654E-03
 3.12663E-03
 2.63052E-03
 2.96408E-03
 0.00000E+00
 0.00000E+00
-3.95540E-03
-1.91850E-03
 1.02806E-03
 2.62350E-03
 3.55788E-03
 3.63748E-03
 0.00000E+00
 0.00000E+00
-4.06359E-03
-3.45251E-03
-8.49232E-04
 1.85014E-03
 3.63888E-03
 3.68737E-03
 0.00000E+00
 0.00000E+00
-3.75635E-03
-3.68031E-03
-1.48706E-03
 1.30314E-03
 3.37306E-03
 3.44298E-03
 0.00000E+00
 0.00000E+00
-3.30228E-03
-3.40241E-03
-1.56495E-03
 9.76038E-04
 2.99865E-03
 3.10249E-03
 0.00000E+00
 0.00000E+00
-2.47220E-03
-2.54922E-03
-1.24244E-03
 6.00107E-04
 2.17867E-03
 2.53058E-03
 0.00000E+00
 0.00000E+00
 0.00000E+00
 0.00000E+00
 0.00000E+00
 0.00000E+00
 0.00000E+00
 0.00000E+00
 0.00000E+00
 SCALARS predictedDisp12 float  1                  
LOOKUP_TABLE default
 1.00000E-01
 1.00000E-01
 1.00000E-01
 1.00000E-01
 1.00000E-01
 1.00000E-01
 1.00000E-01
 1.00000E-01
 0.00000E+00
 6.93732E-02
 8.16992E-02
 8.47606E-02
 8.42869E-02
 8.00632E-02
 6.61506E-02
 0.00000E+00
 0.00000E+00
 4.30333E-02
 6.53423E-02
 7.12638E-02
 7.03824E-02
 6.34897E-02
 4.55604E-02
 0.00000E+00
 0.00000E+00
 3.00555E-02
 4.83151E-02
 5.64356E-02
 5.63474E-02
 4.91923E-02
 3.23072E-02
 0.00000E+00
 0.00000E+00
 2.13653E-02
 3.52661E-02
 4.22663E-02
 4.28079E-02
 3.68027E-02
 2.30236E-02
 0.00000E+00
 0.00000E+00
 1.47825E-02
 2.46307E-02
 2.98064E-02
 3.03858E-02
 2.60281E-02
 1.59710E-02
 0.00000E+00
 0.00000E+00
 9.38406E-03
 1.54975E-02
 1.87427E-02
 1.91815E-02
 1.65602E-02
 1.02613E-02
 0.00000E+00
 0.00000E+00
 4.62434E-03
 7.34650E-03
 8.77598E-03
 9.00230E-03
 7.93641E-03
 5.31496E-03
 0.00000E+00
 0.00000E+00
 0.00000E+00
 0.00000E+00
 0.00000E+00
 0.00000E+00
 0.00000E+00
 0.00000E+00
 0.00000E+00
 SCALARS dual11 float  1                           
LOOKUP_TABLE default
 0.00000E+00
 0.00000E+00
 0.00000E+00
 0.00000E+00
 0.00000E+00
 0.00000E+00
 0.00000E+00
 0.00000E+00
 0.00000E+00
-2.48217E-04
-5.97367E-04
-6.04049E-04
-2.89640E-04
-5.55423E-05
-1.33490E-05
 0.00000E+00
 0.00000E+00
 1.25921E-04
-2.84927E-04
-8.07814E-04
-8.86972E-04
-5.92268E-04
-2.67809E-04
 0.00000E+00
 0.00000E+00
 6.05315E-04
 6.78608E-04
-3.72309E-05
-8.16711E-04
-9.83190E-04
-5.64586E-04
 0.00000E+00
 0.00000E+00
 6.17789E-04
 1.11408E-03
 8.86609E-04
 5.54986E-05
-5.55370E-04
-4.93803E-04
 0.00000E+00
 0.00000E+00
 2.69841E-04
 7.02339E-04
 9.94287E-04
 7.83551E-04
 2.89177E-04
-2.83913E-05
 0.00000E+00
 0.00000E+00
-6.87960E-05
 9.89784E-05
 4.67104E-04
 7.55264E-04
 7.13613E-04
 3.76255E-04
 0.00000E+00
 0.00000E+00
-1.92087E-04
-2.03230E-04
 2.60594E-05
 3.64068E-04
 5.57917E-04
 4.33859E-04
 0.00000E+00
 0.00000E+00
 0.00000E+00
 0.00000E+00
 0.00000E+00
 0.00000E+00
 0.00000E+00
 0.00000E+00
 0.00000E+00
 SCALARS dual12 float  1                           
LOOKUP_TABLE default
 0.00000E+00
 0.00000E+00
 0.00000E+00
 0.00000E+00
 0.00000E+00
 0.00000E+00
 0.00000E+00
 0.00000E+00
 0.00000E+00
 1.48496E-04
-2.72146E-04
-7.37676E-04
-5.81408E-04
-1.01666E-04
 9.61349E-05
 0.00000E+00
 0.00000E+00
 6.05128E-04
 1.39253E-04
-8.84915E-04
-9.78834E-04
-2.40485E-04
 1.47073E-04
 0.00000E+00
 0.00000E+00
 9.30682E-04
 1.12951E-03
 2.14473E-04
-3.81865E-04
-1.29594E-04
 9.67830E-05
 0.00000E+00
 0.00000E+00
 8.90013E-04
 1.79653E-03
 1.73604E-03
 1.06171E-03
 5.17488E-04
 1.06034E-04
 0.00000E+00
 0.00000E+00
 6.66230E-04
 1.71891E-03
 2.38021E-03
 2.13006E-03
 1.25332E-03
 3.03997E-04
 0.00000E+00
 0.00000E+00
 4.42446E-04
 1.22730E-03
 1.92636E-03
 2.02176E-03
 1.40953E-03
 4.96256E-04
 0.00000E+00
 0.00000E+00
 2.38311E-04
 6.05518E-04
 9.75583E-04
 1.10402E-03
 8.78898E-04
 4.33796E-04
 0.00000E+00
 0.00000E+00
 0.00000E+00
 0.00000E+00
 0.00000E+00
 0.00000E+00
 0.00000E+00
 0.00000E+00
 0.00000E+00
 SCALARS NLP float  1                              
LOOKUP_TABLE default
 2.00000E+00
 2.00000E+00
 2.00000E+00
 2.00000E+00
 2.00000E+00
 2.00000E+00
 2.00000E+00
 2.00000E+00
 2.00000E+00
 2.00000E+00
 2.00000E+00
 2.00000E+00
 2.00000E+00
 2.00000E+00
 2.00000E+00
 2.00000E+00
 2.00000E+00
 2.00000E+00
 2.00000E+00
 2.00000E+00
 2.00000E+00
 2.00000E+00
 2.00000E+00
 2.00000E+00
 2.00000E+00
 2.00000E+00
 2.00000E+00
 2.00000E+00
 2.00000E+00
 2.00000E+00
 2.00000E+00
 2.00000E+00
 2.00000E+00
 2.00000E+00
 2.00000E+00
 2.00000E+00
 2.00000E+00
 2.00000E+00
 2.00000E+00
 2.00000E+00
 2.00000E+00
 2.00000E+00
 2.00000E+00
 2.00000E+00
 2.00000E+00
 2.00000E+00
 2.00000E+00
 2.00000E+00
 2.00000E+00
 2.00000E+00
 2.00000E+00
 2.00000E+00
 2.00000E+00
 2.00000E+00
 2.00000E+00
 2.00000E+00
 2.00000E+00
 2.00000E+00
 2.00000E+00
 2.00000E+00
 2.00000E+00
 2.00000E+00
 2.00000E+00
 2.00000E+00
 2.00000E+00
 2.00000E+00
 2.00000E+00
 2.00000E+00
 2.00000E+00
 2.00000E+00
 2.00000E+00
 2.00000E+00
 SCALARS SM float  1                               
LOOKUP_TABLE default
 1.00000E+00
 1.00000E+00
 1.00000E+00
 1.00000E+00
 1.00000E+00
 1.00000E+00
 1.00000E+00
 1.00000E+00
 1.00000E+00
 1.00000E+00
 1.00000E+00
 1.00000E+00
 1.00000E+00
 1.00000E+00
 1.00000E+00
 1.00000E+00
 1.00000E+00
 1.00000E+00
 1.00000E+00
 1.00000E+00
 1.00000E+00
 1.00000E+00
 1.00000E+00
 1.00000E+00
 1.00000E+00
 1.00000E+00
 1.00000E+00
 1.00000E+00
 1.00000E+00
 1.00000E+00
 1.00000E+00
 1.00000E+00
 1.00000E+00
 1.00000E+00
 1.00000E+00
 1.00000E+00
 1.00000E+00
 1.00000E+00
 1.00000E+00
 1.00000E+00
 1.00000E+00
 1.00000E+00
 1.00000E+00
 1.00000E+00
 1.00000E+00
 1.00000E+00
 1.00000E+00
 1.00000E+00
 1.00000E+00
 1.00000E+00
 1.00000E+00
 1.00000E+00
 1.00000E+00
 1.00000E+00
 1.00000E+00
 1.00000E+00
 1.00000E+00
 1.00000E+00
 1.00000E+00
 1.00000E+00
 1.00000E+00
 1.00000E+00
 1.00000E+00
 1.00000E+00
 1.00000E+00
 1.00000E+00
 1.00000E+00
 1.00000E+00
 1.00000E+00
 1.00000E+00
 1.00000E+00
 1.00000E+00
 SCALARS gradient1 float  1                        
LOOKUP_TABLE default
 0.00000E+00
 0.00000E+00
 0.00000E+00
 0.00000E+00
 0.00000E+00
 0.00000E+00
 0.00000E+00
 0.00000E+00
 0.00000E+00
 0.00000E+00
 0.00000E+00
 0.00000E+00
 0.00000E+00
 0.00000E+00
 0.00000E+00
 0.00000E+00
 0.00000E+00
 0.00000E+00
 0.00000E+00
 0.00000E+00
 0.00000E+00
 0.00000E+00
 0.00000E+00
 0.00000E+00
 0.00000E+00
 0.00000E+00
 0.00000E+00
 0.00000E+00
 0.00000E+00
 0.00000E+00
 0.00000E+00
 0.00000E+00
 0.00000E+00
 0.00000E+00
 0.00000E+00
 0.00000E+00
 0.00000E+00
 0.00000E+00
 0.00000E+00
 0.00000E+00
 0.00000E+00
 0.00000E+00
 0.00000E+00
 0.00000E+00
 0.00000E+00
 0.00000E+00
 0.00000E+00
 0.00000E+00
 0.00000E+00
 0.00000E+00
 0.00000E+00
 0.00000E+00
 0.00000E+00
 0.00000E+00
 0.00000E+00
 0.00000E+00
 0.00000E+00
 0.00000E+00
 0.00000E+00
 0.00000E+00
 0.00000E+00
 0.00000E+00
 0.00000E+00
 0.00000E+00
 0.00000E+00
 0.00000E+00
 0.00000E+00
 0.00000E+00
 0.00000E+00
 0.00000E+00
 0.00000E+00
 0.00000E+00
 SCALARS gradient2 float  1                        
LOOKUP_TABLE default
-1.84665E-06
-5.92591E-06
 2.55585E-06
 8.85311E-06
 6.41819E-06
-4.37173E-08
-1.00287E-06
 0.00000E+00
 3.68958E-06
-1.35881E-05
-7.90107E-06
 7.90419E-06
 1.23463E-05
 5.50258E-06
 2.55211E-06
 1.13811E-06
 1.40346E-05
-1.19886E-07
-2.55620E-05
-1.48544E-05
-2.98902E-06
 2.46685E-06
 5.79141E-06
 4.25012E-06
 1.02236E-05
 1.55088E-05
-2.25592E-05
-4.06966E-05
-2.97034E-05
-1.13448E-05
 1.46472E-08
 2.30133E-06
 5.24819E-06
 1.35019E-05
-2.13368E-06
-2.94918E-05
-3.53447E-05
-1.98659E-05
-5.78541E-06
-8.64093E-07
 2.96799E-06
 8.65876E-06
 9.93839E-06
-9.08741E-07
-1.22744E-05
-1.03019E-05
-2.46236E-06
-3.57659E-07
 2.05260E-06
 6.20564E-06
 1.25267E-05
 1.59015E-05
 1.14364E-05
 5.11708E-06
 3.94170E-06
 2.19948E-06
 1.37666E-06
 5.21890E-06
 1.11882E-05
 1.81811E-05
 1.97917E-05
 1.40441E-05
 6.97510E-06
 2.82611E-06
 0.00000E+00
 1.48118E-06
 3.99991E-06
 7.52463E-06
 9.73302E-06
 8.72755E-06
 4.98793E-06
 1.70176E-06
CELL_DATA         112
SCALARS elemDataMatch  float  1
LOOKUP_TABLE default
 1.22926E-08
 1.22926E-08
 1.45267E-07
 1.06601E-07
 5.49526E-07
 2.89303E-07
 6.36154E-07
 1.52759E-07
 1.97772E-07
 1.36787E-08
 1.89409E-08
 2.10084E-09
 2.10084E-09
 0.00000E+00
 1.63166E-08
 1.98920E-08
 9.93844E-08
 3.60980E-07
 2.41957E-06
 2.91033E-06
 4.93341E-06
 2.46224E-06
 1.64324E-06
 2.61496E-07
 2.68537E-08
 1.62151E-08
 4.81307E-09
 2.10084E-09
 8.82283E-08
 1.39248E-07
 5.91315E-07
 2.59400E-07
 5.11612E-07
 2.86962E-06
 3.98534E-06
 5.62639E-06
 2.82523E-06
 1.51914E-06
 3.17676E-07
 5.81252E-08
 4.13153E-08
 2.93789E-09
 3.71867E-08
 1.82566E-07
 1.07644E-06
 1.58356E-06
 2.36768E-06
 8.23695E-07
 5.23929E-07
 8.96187E-07
 6.39435E-07
 1.08751E-06
 5.92930E-07
 4.15695E-07
 1.13128E-07
 3.20734E-08
 6.23564E-09
 5.42888E-08
 3.14800E-07
 1.24095E-06
 2.99569E-06
 3.68139E-06
 4.45154E-06
 2.57343E-06
 2.39543E-06
 1.01013E-06
 6.86707E-07
 3.16418E-07
 5.81971E-08
 4.39317E-08
 6.37383E-09
 1.67671E-08
 1.25027E-07
 3.98007E-07
 9.72013E-07
 2.46357E-06
 2.98306E-06
 4.37745E-06
 2.84183E-06
 2.68104E-06
 9.01881E-07
 4.44531E-07
 2.98356E-08
 5.29560E-09
 4.44672E-09
 1.60043E-08
 5.86308E-08
 1.66026E-07
 2.81595E-07
 7.31022E-07
 7.44762E-07
 1.37999E-06
 8.86315E-07
 1.15308E-06
 4.49591E-07
 3.63800E-07
 5.51910E-08
 2.12541E-08
 0.00000E+00
 4.44672E-09
 4.44672E-09
 3.53854E-08
 2.16649E-08
 1.11484E-07
 5.70976E-08
 1.95278E-07
 7.60611E-08
 1.91341E-07
 5.44614E-08
 9.75021E-08
 1.57161E-08
 1.57161E-08
SCALARS elemRegul  float  1
LOOKUP_TABLE default
 0.00000E+00
 0.00000E+00
 0.00000E+00
 0.00000E+00
 0.00000E+00
 0.00000E+00
 0.00000E+00
 0.00000E+00
 0.00000E+00
 0.00000E+00
 0.00000E+00
 0.00000E+00
 0.00000E+00
 0.00000E+00
 0.00000E+00
 0.00000E+00
 0.00000E+00
 0.00000E+00
 0.00000E+00
 0.00000E+00
 0.00000E+00
 0.00000E+00
 0.00000E+00
 0.00000E+00
 0.00000E+00
 0.00000E+00
 0.00000E+00
 0.00000E+00
 0.00000E+00
 0.00000E+00
 0.00000E+00
 0.00000E+00
 0.00000E+00
 0.00000E+00
 0.00000E+00
 0.00000E+00
 0.00000E+00
 0.00000E+00
 0.00000E+00
 0.00000E+00
 0.00000E+00
 0.00000E+00
 0.00000E+00
 0.00000E+00
 0.00000E+00
 0.00000E+00
 0.00000E+00
 0.00000E+00
 0.00000E+00
 0.00000E+00
 0.00000E+00
 0.00000E+00
 0.00000E+00
 0.00000E+00
 0.00000E+00
 0.00000E+00
 0.00000E+00
 0.00000E+00
 0.00000E+00
 0.00000E+00
 0.00000E+00
 0.00000E+00
 0.00000E+00
 0.00000E+00
 0.00000E+00
 0.00000E+00
 0.00000E+00
 0.00000E+00
 0.00000E+00
 0.00000E+00
 0.00000E+00
 0.00000E+00
 0.00000E+00
 0.00000E+00
 0.00000E+00
 0.00000E+00
 0.00000E+00
 0.00000E+00
 0.00000E+00
 0.00000E+00
 0.00000E+00
 0.00000E+00
 0.00000E+00
 0.00000E+00
 0.00000E+00
 0.00000E+00
 0.00000E+00
 0.00000E+00
 0.00000E+00
 0.00000E+00
 0.00000E+00
 0.00000E+00
 0.00000E+00
 0.00000E+00
 0.00000E+00
 0.00000E+00
 0.00000E+00
 0.00000E+00
 0.00000E+00
 0.00000E+00
 0.00000E+00
 0.00000E+00
 0.00000E+00
 0.00000E+00
 0.00000E+00
 0.00000E+00
 0.00000E+00
 0.00000E+00
 0.00000E+00
 0.00000E+00
 0.00000E+00
 0.00000E+00
SCALARS l2grad2  float  1
LOOKUP_TABLE default
 0.00000E+00
 0.00000E+00
 0.00000E+00
 0.00000E+00
 0.00000E+00
 0.00000E+00
 0.00000E+00
 0.00000E+00
 0.00000E+00
 0.00000E+00
 0.00000E+00
 0.00000E+00
 0.00000E+00
 0.00000E+00
 0.00000E+00
 0.00000E+00
 0.00000E+00
 0.00000E+00
 0.00000E+00
 0.00000E+00
 0.00000E+00
 0.00000E+00
 0.00000E+00
 0.00000E+00
 0.00000E+00
 0.00000E+00
 0.00000E+00
 0.00000E+00
 0.00000E+00
 0.00000E+00
 0.00000E+00
 0.00000E+00
 0.00000E+00
 0.00000E+00
 0.00000E+00
 0.00000E+00
 0.00000E+00
 0.00000E+00
 0.00000E+00
 0.00000E+00
 0.00000E+00
 0.00000E+00
 0.00000E+00
 0.00000E+00
 0.00000E+00
 0.00000E+00
 0.00000E+00
 0.00000E+00
 0.00000E+00
 0.00000E+00
 0.00000E+00
 0.00000E+00
 0.00000E+00
 0.00000E+00
 0.00000E+00
 0.00000E+00
 0.00000E+00
 0.00000E+00
 0.00000E+00
 0.00000E+00
 0.00000E+00
 0.00000E+00
 0.00000E+00
 0.00000E+00
 0.00000E+00
 0.00000E+00
 0.00000E+00
 0.00000E+00
 0.00000E+00
 0.00000E+00
 0.00000E+00
 0.00000E+00
 0.00000E+00
 0.00000E+00
 0.00000E+00
 0.00000E+00
 0.00000E+00
 0.00000E+00
 0.00000E+00
 0.00000E+00
 0.00000E+00
 0.00000E+00
 0.00000E+00
 0.00000E+00
 0.00000E+00
 0.00000E+00
 0.00000E+00
 0.00000E+00
 0.00000E+00
 0.00000E+00
 0.00000E+00
 0.00000E+00
 0.00000E+00
 0.00000E+00
 0.00000E+00
 0.00000E+00
 0.00000E+00
 0.00000E+00
 0.00000E+00
 0.00000E+00
 0.00000E+00
 0.00000E+00
 0.00000E+00
 0.00000E+00
 0.00000E+00
 0.00000E+00
 0.00000E+00
 0.00000E+00
 0.00000E+00
 0.00000E+00
 0.00000E+00
 0.00000E+00
