<?xml version="1.0"?>
<VTKFile type="UnstructuredGrid"  version="0.1"  >
<UnstructuredGrid>
<Piece  NumberOfPoints="72" NumberOfCells="112">
<Points>
<DataArray  type="Float64"  NumberOfComponents="3"  format="ascii">0 0 0  1 0 0  2 0 0  3 0 0  4 0 0  5 0 0  6 0 0  7 0 0  0 1 0  1 1 0  2 1 0  3 1 0  4 1 0  5 1 0  6 1 0  7 1 0  0 2 0  1 2 0  2 2 0  3 2 0  4 2 0  5 2 0  6 2 0  7 2 0  0 3 0  1 3 0  2 3 0  3 3 0  4 3 0  5 3 0  6 3 0  7 3 0  0 4 0  1 4 0  2 4 0  3 4 0  4 4 0  5 4 0  6 4 0  7 4 0  0 5 0  1 5 0  2 5 0  3 5 0  4 5 0  5 5 0  6 5 0  7 5 0  0 6 0  1 6 0  2 6 0  3 6 0  4 6 0  5 6 0  6 6 0  7 6 0  0 7 0  1 7 0  2 7 0  3 7 0  4 7 0  5 7 0  6 7 0  7 7 0  0 8 0  1 8 0  2 8 0  3 8 0  4 8 0  5 8 0  6 8 0  7 8 0  </DataArray>
</Points>
<Cells>
<DataArray  type="UInt32"  Name="connectivity"  format="ascii">0 8 9  0 1 9  1 9 10  1 2 10  2 10 11  2 3 11  3 11 12  3 4 12  4 12 13  4 5 13  5 13 14  5 6 14  6 14 15  6 7 15  8 16 17  8 9 17  9 17 18  9 10 18  10 18 19  10 11 19  11 19 20  11 12 20  12 20 21  12 13 21  13 21 22  13 14 22  14 22 23  14 15 23  16 24 25  16 17 25  17 25 26  17 18 26  18 26 27  18 19 27  19 27 28  19 20 28  20 28 29  20 21 29  21 29 30  21 22 30  22 30 31  22 23 31  24 32 33  24 25 33  25 33 34  25 26 34  26 34 35  26 27 35  27 35 36  27 28 36  28 36 37  28 29 37  29 37 38  29 30 38  30 38 39  30 31 39  32 40 41  32 33 41  33 41 42  33 34 42  34 42 43  34 35 43  35 43 44  35 36 44  36 44 45  36 37 45  37 45 46  37 38 46  38 46 47  38 39 47  40 48 49  40 41 49  41 49 50  41 42 50  42 50 51  42 43 51  43 51 52  43 44 52  44 52 53  44 45 53  45 53 54  45 46 54  46 54 55  46 47 55  48 56 57  48 49 57  49 57 58  49 50 58  50 58 59  50 51 59  51 59 60  51 52 60  52 60 61  52 53 61  53 61 62  53 54 62  54 62 63  54 55 63  56 64 65  56 57 65  57 65 66  57 58 66  58 66 67  58 59 67  59 67 68  59 60 68  60 68 69  60 61 69  61 69 70  61 62 70  62 70 71  62 63 71  </DataArray>
<DataArray  type="UInt32"  Name="offsets"  format="ascii">3 6 9 12 15 18 21 24 27 30 33 36 39 42 45 48 51 54 57 60 63 66 69 72 75 78 81 84 87 90 93 96 99 102 105 108 111 114 117 120 123 126 129 132 135 138 141 144 147 150 153 156 159 162 165 168 171 174 177 180 183 186 189 192 195 198 201 204 207 210 213 216 219 222 225 228 231 234 237 240 243 246 249 252 255 258 261 264 267 270 273 276 279 282 285 288 291 294 297 300 303 306 309 312 315 318 321 324 327 330 333 336 </DataArray>
<DataArray  type="UInt8"  Name="types"  format="ascii">5 5 5 5 5 5 5 5 5 5 5 5 5 5 5 5 5 5 5 5 5 5 5 5 5 5 5 5 5 5 5 5 5 5 5 5 5 5 5 5 5 5 5 5 5 5 5 5 5 5 5 5 5 5 5 5 5 5 5 5 5 5 5 5 5 5 5 5 5 5 5 5 5 5 5 5 5 5 5 5 5 5 5 5 5 5 5 5 5 5 5 5 5 5 5 5 5 5 5 5 5 5 5 5 5 5 5 5 5 5 5 5 </DataArray>
</Cells>
<PointData  Vectors="f_15272"> 
<DataArray  type="Float64"  Name="f_15272"  NumberOfComponents="3" format="ascii">-8.5100789121467322e-09 9.9999926956273660e-02 0.0000000000000000e+00  -3.3227517052904334e-09 1.0000010613300539e-01 0.0000000000000000e+00  3.7845496085237513e-10 1.0000001163850751e-01 0.0000000000000000e+00  -9.9639361633306122e-09 9.9999885598713784e-02 0.0000000000000000e+00  3.4236840502452565e-09 9.9999933589786719e-02 0.0000000000000000e+00  7.8021669035320294e-09 1.0000001604244695e-01 0.0000000000000000e+00  -1.1247940384038376e-09 1.0000013870320298e-01 0.0000000000000000e+00  4.1767444765038704e-08 1.0000027047772558e-01 0.0000000000000000e+00  -3.2142630428114096e-08 -1.2448898182874580e-07 0.0000000000000000e+00  1.1246504801394868e-02 6.9076294632417587e-02 0.0000000000000000e+00  7.2119229176074153e-03 7.9845784729055999e-02 0.0000000000000000e+00  4.0067678079549257e-03 8.1443561120727481e-02 0.0000000000000000e+00  2.2298626147664968e-03 8.2222381388213667e-02 0.0000000000000000e+00  1.5089026229956749e-03 7.9813726110920830e-02 0.0000000000000000e+00  2.1528570041917986e-03 6.5764929339062042e-02 0.0000000000000000e+00  -8.6384070070891314e-09 -1.1009962638329059e-07 0.0000000000000000e+00  9.9113665077830363e-09 5.5021135793169712e-08 0.0000000000000000e+00  -2.3993563786266797e-04 4.3537410851666729e-02 0.0000000000000000e+00  3.1660603335249195e-03 6.3044226340975285e-02 0.0000000000000000e+00  2.6819079744711768e-03 6.6431496020981792e-02 0.0000000000000000e+00  2.0514748562631998e-03 6.6455084602011452e-02 0.0000000000000000e+00  2.5474896092761976e-03 6.2994272103401874e-02 0.0000000000000000e+00  3.4093446900756185e-03 4.6157641207422391e-02 0.0000000000000000e+00  8.5965536797616623e-09 7.7752698059022749e-08 0.0000000000000000e+00  -1.2077969893401097e-08 6.5136075589378140e-08 0.0000000000000000e+00  -2.2593120133587259e-03 3.0697908691741153e-02 0.0000000000000000e+00  4.1937261372936446e-05 4.9249995536805362e-02 0.0000000000000000e+00  1.1455169265353355e-03 5.4472908934063195e-02 0.0000000000000000e+00  1.3010748948976698e-03 5.3797379974618573e-02 0.0000000000000000e+00  1.9179456034863034e-03 4.8665867994762496e-02 0.0000000000000000e+00  2.7244518964727568e-03 3.2536604242154425e-02 0.0000000000000000e+00  -5.0451844047103791e-09 -9.5545177199659278e-08 0.0000000000000000e+00  2.4033639970191117e-08 -4.3253618863070843e-08 0.0000000000000000e+00  -3.1551470196111309e-03 2.1870607196704164e-02 0.0000000000000000e+00  -1.7287049065242729e-03 3.8232965862522270e-02 0.0000000000000000e+00  4.4953742932852376e-04 4.5034788088633031e-02 0.0000000000000000e+00  1.5831509964568504e-03 4.4266510209252763e-02 0.0000000000000000e+00  2.3256163299809653e-03 3.7977007173141834e-02 0.0000000000000000e+00  2.5676270517979386e-03 2.3360161916128504e-02 0.0000000000000000e+00  6.2112343972359251e-09 3.1676025164885984e-08 0.0000000000000000e+00  -3.5971553709071403e-09 5.9380580751452935e-08 0.0000000000000000e+00  -3.4137779184779927e-03 1.5139161298696942e-02 0.0000000000000000e+00  -3.0451185497850216e-03 2.6630076748592000e-02 0.0000000000000000e+00  -2.3715273312281587e-04 3.4131144540562708e-02 0.0000000000000000e+00  2.2409936644607145e-03 3.4637726007716266e-02 0.0000000000000000e+00  3.5442533118866591e-03 2.8761870016207135e-02 0.0000000000000000e+00  3.2442616698147193e-03 1.6667127300433134e-02 0.0000000000000000e+00  -5.1969208486057463e-09 -1.7281940627115351e-08 0.0000000000000000e+00  6.7562683456744341e-10 1.4436688737623414e-08 0.0000000000000000e+00  -3.1452397290610058e-03 9.6270101769639505e-03 0.0000000000000000e+00  -3.2136472864978550e-03 1.6688249557706845e-02 0.0000000000000000e+00  -1.2241009621248718e-03 2.1150962178377093e-02 0.0000000000000000e+00  1.6174049521499379e-03 2.2205476746161294e-02 0.0000000000000000e+00  3.5039597209362873e-03 1.8712476094062087e-02 0.0000000000000000e+00  3.2828204076293882e-03 1.0857505121704183e-02 0.0000000000000000e+00  4.1770865651718211e-10 -1.3701379792240076e-08 0.0000000000000000e+00  -1.0032228627737414e-09 3.4652623645917410e-08 0.0000000000000000e+00  -2.3187778185798607e-03 4.7172754778305884e-03 0.0000000000000000e+00  -2.4314943169159919e-03 7.9182682407696065e-03 0.0000000000000000e+00  -1.1500613166251421e-03 9.8896026108662646e-03 0.0000000000000000e+00  7.6176280826996509e-04 1.0365511920864138e-02 0.0000000000000000e+00  2.3629691200311460e-03 8.9488446027369672e-03 0.0000000000000000e+00  2.5496934751330861e-03 5.5598427935159619e-03 0.0000000000000000e+00  -2.2554976905202099e-09 -1.1846199581415558e-09 0.0000000000000000e+00  -3.8131848303974944e-08 7.9997199135324504e-08 0.0000000000000000e+00  1.1183802090435801e-08 -1.1101713224706995e-08 0.0000000000000000e+00  -4.8731170890337450e-09 2.0290956006211430e-08 0.0000000000000000e+00  1.5581472054696802e-08 -7.4967702555944851e-09 0.0000000000000000e+00  -8.5291010721051145e-09 -2.6101226879981631e-08 0.0000000000000000e+00  1.1807072092653643e-09 -7.2378775222874823e-09 0.0000000000000000e+00  -8.0423217541651945e-09 -8.9891014184133129e-09 0.0000000000000000e+00  2.6347833745326149e-09 1.0268023909854364e-08 0.0000000000000000e+00  </DataArray> 
</PointData> 
</Piece>
</UnstructuredGrid>
</VTKFile>