<?xml version="1.0"?>
<VTKFile type="UnstructuredGrid"  version="0.1"  >
<UnstructuredGrid>
<Piece  NumberOfPoints="72" NumberOfCells="112">
<Points>
<DataArray  type="Float64"  NumberOfComponents="3"  format="ascii">0 0 0  1 0 0  2 0 0  3 0 0  4 0 0  5 0 0  6 0 0  7 0 0  0 1 0  1 1 0  2 1 0  3 1 0  4 1 0  5 1 0  6 1 0  7 1 0  0 2 0  1 2 0  2 2 0  3 2 0  4 2 0  5 2 0  6 2 0  7 2 0  0 3 0  1 3 0  2 3 0  3 3 0  4 3 0  5 3 0  6 3 0  7 3 0  0 4 0  1 4 0  2 4 0  3 4 0  4 4 0  5 4 0  6 4 0  7 4 0  0 5 0  1 5 0  2 5 0  3 5 0  4 5 0  5 5 0  6 5 0  7 5 0  0 6 0  1 6 0  2 6 0  3 6 0  4 6 0  5 6 0  6 6 0  7 6 0  0 7 0  1 7 0  2 7 0  3 7 0  4 7 0  5 7 0  6 7 0  7 7 0  0 8 0  1 8 0  2 8 0  3 8 0  4 8 0  5 8 0  6 8 0  7 8 0  </DataArray>
</Points>
<Cells>
<DataArray  type="UInt32"  Name="connectivity"  format="ascii">0 8 9  0 1 9  1 9 10  1 2 10  2 10 11  2 3 11  3 11 12  3 4 12  4 12 13  4 5 13  5 13 14  5 6 14  6 14 15  6 7 15  8 16 17  8 9 17  9 17 18  9 10 18  10 18 19  10 11 19  11 19 20  11 12 20  12 20 21  12 13 21  13 21 22  13 14 22  14 22 23  14 15 23  16 24 25  16 17 25  17 25 26  17 18 26  18 26 27  18 19 27  19 27 28  19 20 28  20 28 29  20 21 29  21 29 30  21 22 30  22 30 31  22 23 31  24 32 33  24 25 33  25 33 34  25 26 34  26 34 35  26 27 35  27 35 36  27 28 36  28 36 37  28 29 37  29 37 38  29 30 38  30 38 39  30 31 39  32 40 41  32 33 41  33 41 42  33 34 42  34 42 43  34 35 43  35 43 44  35 36 44  36 44 45  36 37 45  37 45 46  37 38 46  38 46 47  38 39 47  40 48 49  40 41 49  41 49 50  41 42 50  42 50 51  42 43 51  43 51 52  43 44 52  44 52 53  44 45 53  45 53 54  45 46 54  46 54 55  46 47 55  48 56 57  48 49 57  49 57 58  49 50 58  50 58 59  50 51 59  51 59 60  51 52 60  52 60 61  52 53 61  53 61 62  53 54 62  54 62 63  54 55 63  56 64 65  56 57 65  57 65 66  57 58 66  58 66 67  58 59 67  59 67 68  59 60 68  60 68 69  60 61 69  61 69 70  61 62 70  62 70 71  62 63 71  </DataArray>
<DataArray  type="UInt32"  Name="offsets"  format="ascii">3 6 9 12 15 18 21 24 27 30 33 36 39 42 45 48 51 54 57 60 63 66 69 72 75 78 81 84 87 90 93 96 99 102 105 108 111 114 117 120 123 126 129 132 135 138 141 144 147 150 153 156 159 162 165 168 171 174 177 180 183 186 189 192 195 198 201 204 207 210 213 216 219 222 225 228 231 234 237 240 243 246 249 252 255 258 261 264 267 270 273 276 279 282 285 288 291 294 297 300 303 306 309 312 315 318 321 324 327 330 333 336 </DataArray>
<DataArray  type="UInt8"  Name="types"  format="ascii">5 5 5 5 5 5 5 5 5 5 5 5 5 5 5 5 5 5 5 5 5 5 5 5 5 5 5 5 5 5 5 5 5 5 5 5 5 5 5 5 5 5 5 5 5 5 5 5 5 5 5 5 5 5 5 5 5 5 5 5 5 5 5 5 5 5 5 5 5 5 5 5 5 5 5 5 5 5 5 5 5 5 5 5 5 5 5 5 5 5 5 5 5 5 5 5 5 5 5 5 5 5 5 5 5 5 5 5 5 5 5 5 </DataArray>
</Cells>
<PointData  Vectors="f_60"> 
<DataArray  type="Float64"  Name="f_60"  NumberOfComponents="3" format="ascii">-7.3956029293797444e-10 1.1235781068219109e-09 0.0000000000000000e+00  1.9685245961876536e-09 -5.2974904643038382e-10 0.0000000000000000e+00  -5.6980268407869172e-10 -1.1522288462773104e-09 0.0000000000000000e+00  -1.0706530368743869e-09 6.6062289246717287e-10 0.0000000000000000e+00  2.2120775978157123e-10 1.2710773451667565e-09 0.0000000000000000e+00  -8.3215464590956633e-10 1.0104617894050460e-09 0.0000000000000000e+00  -1.1837799004725404e-09 4.6410106344011331e-10 0.0000000000000000e+00  3.1051519620478906e-09 1.1707209441039566e-08 0.0000000000000000e+00  4.9776517351802460e-10 -1.0562436387538910e-09 0.0000000000000000e+00  5.4200875422597114e-04 3.5351486392295161e-05 0.0000000000000000e+00  1.0915402507716745e-03 1.1691767563923360e-03 0.0000000000000000e+00  6.3974964854816353e-04 2.5561667639882684e-03 0.0000000000000000e+00  -2.8432362027739180e-04 1.8935068490392587e-03 0.0000000000000000e+00  -4.7086419886258085e-04 3.2646020596841001e-04 0.0000000000000000e+00  -2.1214386259551252e-04 -7.3576261620793228e-05 0.0000000000000000e+00  -1.6678121653619460e-10 -1.6643160814048350e-09 0.0000000000000000e+00  4.7977208782354087e-10 1.7227792247359800e-10 0.0000000000000000e+00  -3.5226229522358104e-04 -5.1721298625148529e-04 0.0000000000000000e+00  4.9095488965453205e-04 1.5182993228625066e-03 0.0000000000000000e+00  1.5071081625827464e-03 5.5702494652349480e-03 0.0000000000000000e+00  1.1800285379527328e-03 4.6282001717378052e-03 0.0000000000000000e+00  2.7755831034451480e-04 5.9119386431228651e-04 0.0000000000000000e+00  1.0943438426946955e-04 -2.4193789008817803e-04 0.0000000000000000e+00  -6.4209214656191526e-10 1.0692198267440695e-09 0.0000000000000000e+00  -1.0978837943650442e-09 2.0552454084292034e-09 0.0000000000000000e+00  -1.2354163425053672e-03 -7.6891405446890247e-04 0.0000000000000000e+00  -2.0018287742024220e-03 -1.3762338469934024e-03 0.0000000000000000e+00  -1.4684822646101548e-04 2.5106436741373244e-03 0.0000000000000000e+00  1.5941557504029345e-03 3.2995862999212998e-03 0.0000000000000000e+00  1.8892360450679332e-03 6.5281873987438354e-04 0.0000000000000000e+00  8.4270023294813338e-04 -2.4417229074124555e-04 0.0000000000000000e+00  1.0228420916226223e-09 -5.3313026990540483e-11 0.0000000000000000e+00  7.2839719218057484e-10 5.1446863621476891e-10 0.0000000000000000e+00  -7.6681881299135431e-04 -5.5178677485149142e-04 0.0000000000000000e+00  -2.0082443766873750e-03 -3.0591951439415941e-03 0.0000000000000000e+00  -1.6060834952641894e-03 -2.8021533130274728e-03 0.0000000000000000e+00  2.4171546243568139e-04 -1.5873748953495526e-03 0.0000000000000000e+00  1.4309006727881190e-03 -1.3566113380740787e-03 0.0000000000000000e+00  1.0177030511151562e-03 -1.3653267357351795e-04 0.0000000000000000e+00  -1.1685459940956539e-09 -1.4073246688478718e-09 0.0000000000000000e+00  -7.5445646534420243e-10 1.3282722556196454e-09 0.0000000000000000e+00  -6.5780953820318217e-05 -3.8121812021801947e-04 0.0000000000000000e+00  -3.4777135437078367e-04 -1.9950812167620043e-03 0.0000000000000000e+00  -1.1688105874986226e-03 -4.5346102809256626e-03 0.0000000000000000e+00  -1.0313234538494175e-03 -4.6637418948480150e-03 0.0000000000000000e+00  -2.3846938644252891e-04 -2.7453992124854632e-03 0.0000000000000000e+00  1.6945248681102089e-04 -3.1365725023322006e-04 0.0000000000000000e+00  7.9786218914097377e-10 2.7823063505530056e-09 0.0000000000000000e+00  3.5938024065678791e-11 -2.0401986489395979e-09 0.0000000000000000e+00  2.4586947498005742e-04 -3.0417455253847878e-04 0.0000000000000000e+00  3.3371673984139378e-04 -1.2523650908804289e-03 0.0000000000000000e+00  2.7365275249058216e-05 -2.5953778448120236e-03 0.0000000000000000e+00  -5.5623205864334586e-04 -2.9890751383374135e-03 0.0000000000000000e+00  -7.7852835204432697e-04 -2.0414000420885671e-03 0.0000000000000000e+00  -4.9233015093552105e-04 -5.1740667806450405e-04 0.0000000000000000e+00  -6.7493072633989620e-10 -1.5967657313282025e-10 0.0000000000000000e+00  4.0212603074598212e-10 -3.4414989854234309e-09 0.0000000000000000e+00  2.5785017596562256e-04 -2.0057618715721217e-04 0.0000000000000000e+00  3.9275380400217866e-04 -6.0473431137259383e-04 0.0000000000000000e+00  2.3317820001756494e-04 -1.1471576831852850e-03 0.0000000000000000e+00  -1.8838309233804059e-04 -1.3379007284030349e-03 0.0000000000000000e+00  -5.2108518613264089e-04 -1.0176144381242888e-03 0.0000000000000000e+00  -4.5678030058179454e-04 -4.1053346907777937e-04 0.0000000000000000e+00  -2.5264229819615315e-10 5.2238171813365246e-10 0.0000000000000000e+00  -9.7627618447848550e-10 1.8427056103457241e-09 0.0000000000000000e+00  1.0194796480150533e-09 -1.3784235908263885e-09 0.0000000000000000e+00  3.0464311220975044e-10 -4.2409508062046245e-09 0.0000000000000000e+00  -1.2418834903781257e-09 -8.5781201851847016e-10 0.0000000000000000e+00  5.1575289176250543e-10 -2.0661389978043729e-10 0.0000000000000000e+00  -7.4432752890226971e-10 -1.0839262492348402e-10 0.0000000000000000e+00  -8.3270473690405927e-10 -2.3432995440238900e-09 0.0000000000000000e+00  2.5605583761701810e-10 1.9708007969158018e-10 0.0000000000000000e+00  </DataArray> 
</PointData> 
</Piece>
</UnstructuredGrid>
</VTKFile>