<?xml version="1.0"?>
<VTKFile type="UnstructuredGrid"  version="0.1"  >
<UnstructuredGrid>
<Piece  NumberOfPoints="72" NumberOfCells="112">
<Points>
<DataArray  type="Float64"  NumberOfComponents="3"  format="ascii">0 0 0  1 0 0  2 0 0  3 0 0  4 0 0  5 0 0  6 0 0  7 0 0  0 1 0  1 1 0  2 1 0  3 1 0  4 1 0  5 1 0  6 1 0  7 1 0  0 2 0  1 2 0  2 2 0  3 2 0  4 2 0  5 2 0  6 2 0  7 2 0  0 3 0  1 3 0  2 3 0  3 3 0  4 3 0  5 3 0  6 3 0  7 3 0  0 4 0  1 4 0  2 4 0  3 4 0  4 4 0  5 4 0  6 4 0  7 4 0  0 5 0  1 5 0  2 5 0  3 5 0  4 5 0  5 5 0  6 5 0  7 5 0  0 6 0  1 6 0  2 6 0  3 6 0  4 6 0  5 6 0  6 6 0  7 6 0  0 7 0  1 7 0  2 7 0  3 7 0  4 7 0  5 7 0  6 7 0  7 7 0  0 8 0  1 8 0  2 8 0  3 8 0  4 8 0  5 8 0  6 8 0  7 8 0  </DataArray>
</Points>
<Cells>
<DataArray  type="UInt32"  Name="connectivity"  format="ascii">0 8 9  0 1 9  1 9 10  1 2 10  2 10 11  2 3 11  3 11 12  3 4 12  4 12 13  4 5 13  5 13 14  5 6 14  6 14 15  6 7 15  8 16 17  8 9 17  9 17 18  9 10 18  10 18 19  10 11 19  11 19 20  11 12 20  12 20 21  12 13 21  13 21 22  13 14 22  14 22 23  14 15 23  16 24 25  16 17 25  17 25 26  17 18 26  18 26 27  18 19 27  19 27 28  19 20 28  20 28 29  20 21 29  21 29 30  21 22 30  22 30 31  22 23 31  24 32 33  24 25 33  25 33 34  25 26 34  26 34 35  26 27 35  27 35 36  27 28 36  28 36 37  28 29 37  29 37 38  29 30 38  30 38 39  30 31 39  32 40 41  32 33 41  33 41 42  33 34 42  34 42 43  34 35 43  35 43 44  35 36 44  36 44 45  36 37 45  37 45 46  37 38 46  38 46 47  38 39 47  40 48 49  40 41 49  41 49 50  41 42 50  42 50 51  42 43 51  43 51 52  43 44 52  44 52 53  44 45 53  45 53 54  45 46 54  46 54 55  46 47 55  48 56 57  48 49 57  49 57 58  49 50 58  50 58 59  50 51 59  51 59 60  51 52 60  52 60 61  52 53 61  53 61 62  53 54 62  54 62 63  54 55 63  56 64 65  56 57 65  57 65 66  57 58 66  58 66 67  58 59 67  59 67 68  59 60 68  60 68 69  60 61 69  61 69 70  61 62 70  62 70 71  62 63 71  </DataArray>
<DataArray  type="UInt32"  Name="offsets"  format="ascii">3 6 9 12 15 18 21 24 27 30 33 36 39 42 45 48 51 54 57 60 63 66 69 72 75 78 81 84 87 90 93 96 99 102 105 108 111 114 117 120 123 126 129 132 135 138 141 144 147 150 153 156 159 162 165 168 171 174 177 180 183 186 189 192 195 198 201 204 207 210 213 216 219 222 225 228 231 234 237 240 243 246 249 252 255 258 261 264 267 270 273 276 279 282 285 288 291 294 297 300 303 306 309 312 315 318 321 324 327 330 333 336 </DataArray>
<DataArray  type="UInt8"  Name="types"  format="ascii">5 5 5 5 5 5 5 5 5 5 5 5 5 5 5 5 5 5 5 5 5 5 5 5 5 5 5 5 5 5 5 5 5 5 5 5 5 5 5 5 5 5 5 5 5 5 5 5 5 5 5 5 5 5 5 5 5 5 5 5 5 5 5 5 5 5 5 5 5 5 5 5 5 5 5 5 5 5 5 5 5 5 5 5 5 5 5 5 5 5 5 5 5 5 5 5 5 5 5 5 5 5 5 5 5 5 5 5 5 5 5 5 </DataArray>
</Cells>
<PointData  Scalars="ControlVisualization"> 
<DataArray  type="Float64"  Name="ControlVisualization"  format="ascii">1.0334879954240130e+00  1.2795705569073514e+00  1.3401358154051037e+00  1.1855702461701720e+00  1.2805841574336072e+00  1.7371131671002071e+00  1.7990804621860146e+00  1.6858623700343836e+00  1.1007236710516235e+00  1.3376194460859341e+00  1.3968915610852202e+00  1.3440801419207855e+00  1.3591696135118629e+00  1.6866244348934589e+00  1.6785445015199061e+00  1.6064776174691735e+00  1.2357545004493120e+00  1.4486751873114105e+00  1.6810148987900537e+00  1.7553008510360195e+00  1.7492121852348030e+00  1.6409092865786885e+00  1.5091559710648543e+00  1.3449321741283382e+00  1.3541803661713352e+00  1.3349675401725563e+00  1.7198731876868758e+00  1.9954555452177907e+00  1.9754791368247921e+00  1.6742348371588633e+00  1.3031453322872151e+00  1.4151432693372745e+00  1.3000821886084202e+00  1.3359971731935512e+00  1.4096742419617443e+00  1.8385822400639382e+00  1.9080432643117085e+00  1.6178969149879476e+00  1.5426221808643654e+00  1.3187248020499385e+00  1.1677585807670376e+00  1.2146194093487417e+00  1.1460713095720063e+00  1.4975708929904812e+00  1.6729869452126636e+00  1.4451037700009730e+00  1.3309581178791674e+00  1.2007200016358084e+00  1.1641004250914260e+00  1.0652831607542457e+00  1.1137043528398374e+00  1.0041734249443943e+00  1.0604549091310538e+00  1.1159052316217317e+00  1.1586662291028365e+00  1.1293903520930726e+00  1.1440357008504574e+00  1.1296716896438213e+00  1.0406542141202249e+00  1.0087252818876482e+00  1.0087515397771540e+00  1.0143063678035611e+00  1.0902376879943980e+00  1.1402295648928196e+00  1.1648728243737032e+00  1.1526842324671982e+00  1.1839916628713614e+00  1.1889430725514991e+00  1.1342610542932565e+00  1.1217881505821430e+00  1.1176768311419876e+00  1.2304613047528734e+00  </DataArray> 
</PointData> 
</Piece>
</UnstructuredGrid>
</VTKFile>