<?xml version="1.0"?>
<VTKFile type="UnstructuredGrid"  version="0.1"  >
<UnstructuredGrid>
<Piece  NumberOfPoints="72" NumberOfCells="112">
<Points>
<DataArray  type="Float64"  NumberOfComponents="3"  format="ascii">0 0 0  1 0 0  2 0 0  3 0 0  4 0 0  5 0 0  6 0 0  7 0 0  0 1 0  1 1 0  2 1 0  3 1 0  4 1 0  5 1 0  6 1 0  7 1 0  0 2 0  1 2 0  2 2 0  3 2 0  4 2 0  5 2 0  6 2 0  7 2 0  0 3 0  1 3 0  2 3 0  3 3 0  4 3 0  5 3 0  6 3 0  7 3 0  0 4 0  1 4 0  2 4 0  3 4 0  4 4 0  5 4 0  6 4 0  7 4 0  0 5 0  1 5 0  2 5 0  3 5 0  4 5 0  5 5 0  6 5 0  7 5 0  0 6 0  1 6 0  2 6 0  3 6 0  4 6 0  5 6 0  6 6 0  7 6 0  0 7 0  1 7 0  2 7 0  3 7 0  4 7 0  5 7 0  6 7 0  7 7 0  0 8 0  1 8 0  2 8 0  3 8 0  4 8 0  5 8 0  6 8 0  7 8 0  </DataArray>
</Points>
<Cells>
<DataArray  type="UInt32"  Name="connectivity"  format="ascii">0 8 9  0 1 9  1 9 10  1 2 10  2 10 11  2 3 11  3 11 12  3 4 12  4 12 13  4 5 13  5 13 14  5 6 14  6 14 15  6 7 15  8 16 17  8 9 17  9 17 18  9 10 18  10 18 19  10 11 19  11 19 20  11 12 20  12 20 21  12 13 21  13 21 22  13 14 22  14 22 23  14 15 23  16 24 25  16 17 25  17 25 26  17 18 26  18 26 27  18 19 27  19 27 28  19 20 28  20 28 29  20 21 29  21 29 30  21 22 30  22 30 31  22 23 31  24 32 33  24 25 33  25 33 34  25 26 34  26 34 35  26 27 35  27 35 36  27 28 36  28 36 37  28 29 37  29 37 38  29 30 38  30 38 39  30 31 39  32 40 41  32 33 41  33 41 42  33 34 42  34 42 43  34 35 43  35 43 44  35 36 44  36 44 45  36 37 45  37 45 46  37 38 46  38 46 47  38 39 47  40 48 49  40 41 49  41 49 50  41 42 50  42 50 51  42 43 51  43 51 52  43 44 52  44 52 53  44 45 53  45 53 54  45 46 54  46 54 55  46 47 55  48 56 57  48 49 57  49 57 58  49 50 58  50 58 59  50 51 59  51 59 60  51 52 60  52 60 61  52 53 61  53 61 62  53 54 62  54 62 63  54 55 63  56 64 65  56 57 65  57 65 66  57 58 66  58 66 67  58 59 67  59 67 68  59 60 68  60 68 69  60 61 69  61 69 70  61 62 70  62 70 71  62 63 71  </DataArray>
<DataArray  type="UInt32"  Name="offsets"  format="ascii">3 6 9 12 15 18 21 24 27 30 33 36 39 42 45 48 51 54 57 60 63 66 69 72 75 78 81 84 87 90 93 96 99 102 105 108 111 114 117 120 123 126 129 132 135 138 141 144 147 150 153 156 159 162 165 168 171 174 177 180 183 186 189 192 195 198 201 204 207 210 213 216 219 222 225 228 231 234 237 240 243 246 249 252 255 258 261 264 267 270 273 276 279 282 285 288 291 294 297 300 303 306 309 312 315 318 321 324 327 330 333 336 </DataArray>
<DataArray  type="UInt8"  Name="types"  format="ascii">5 5 5 5 5 5 5 5 5 5 5 5 5 5 5 5 5 5 5 5 5 5 5 5 5 5 5 5 5 5 5 5 5 5 5 5 5 5 5 5 5 5 5 5 5 5 5 5 5 5 5 5 5 5 5 5 5 5 5 5 5 5 5 5 5 5 5 5 5 5 5 5 5 5 5 5 5 5 5 5 5 5 5 5 5 5 5 5 5 5 5 5 5 5 5 5 5 5 5 5 5 5 5 5 5 5 5 5 5 5 5 5 </DataArray>
</Cells>
<PointData  Scalars="ControlVisualization"> 
<DataArray  type="Float64"  Name="ControlVisualization"  format="ascii">5.0527213212981748e+00  5.1063224750466336e+00  5.0561345398401212e+00  5.2934366013199536e+00  5.5190396639252786e+00  5.5897736813395316e+00  5.4552484882745862e+00  5.5194548616371080e+00  4.2486080590494195e+00  4.5135840302829893e+00  5.1101220744620859e+00  4.8577667542939338e+00  5.0141763311828074e+00  5.0355753300668713e+00  5.1072959217771121e+00  4.8239780286940643e+00  3.7556603079240025e+00  3.7371809607045954e+00  4.4927378192205607e+00  4.6996711511712048e+00  4.6048236677228829e+00  4.6929326868818038e+00  4.1914986353651766e+00  3.9527142683806602e+00  3.2332495118396944e+00  3.6053577515765842e+00  4.1203663776806936e+00  4.6240421402250327e+00  4.6346845941654937e+00  4.3000941683948657e+00  3.3838895210169264e+00  3.3168315951390377e+00  2.9851019424839791e+00  3.2364514946692950e+00  3.8086575017642867e+00  3.6301500130920532e+00  4.1107939880776989e+00  3.5927072271077796e+00  3.6313221846850983e+00  2.9048904096622135e+00  2.8636243615942747e+00  3.1052026648300695e+00  2.6321416970769174e+00  3.4343805879869684e+00  3.2774522074912480e+00  3.1721217731058120e+00  2.8806118224550463e+00  2.9062661124940696e+00  2.7237343718540949e+00  2.5007444061628874e+00  2.6635306655414412e+00  2.7514329087511511e+00  2.4320105930882425e+00  2.7579887823498894e+00  2.5531696081261481e+00  2.5802123341697465e+00  2.3763204417163024e+00  2.3899818000755744e+00  2.5439936811330792e+00  1.9674798703797336e+00  2.5138536645504685e+00  2.1490755229180873e+00  2.2222935366612449e+00  2.1723804347694577e+00  2.1804733340721159e+00  2.2680381745892291e+00  2.1846024386229765e+00  2.2373840290246845e+00  1.9796711375222227e+00  2.0382788812497732e+00  2.0050098651794044e+00  1.8639575092132386e+00  </DataArray> 
</PointData> 
</Piece>
</UnstructuredGrid>
</VTKFile>