<?xml version="1.0"?>
<VTKFile type="UnstructuredGrid"  version="0.1"  >
<UnstructuredGrid>
<Piece  NumberOfPoints="72" NumberOfCells="112">
<Points>
<DataArray  type="Float64"  NumberOfComponents="3"  format="ascii">0 0 0  1 0 0  2 0 0  3 0 0  4 0 0  5 0 0  6 0 0  7 0 0  0 1 0  1 1 0  2 1 0  3 1 0  4 1 0  5 1 0  6 1 0  7 1 0  0 2 0  1 2 0  2 2 0  3 2 0  4 2 0  5 2 0  6 2 0  7 2 0  0 3 0  1 3 0  2 3 0  3 3 0  4 3 0  5 3 0  6 3 0  7 3 0  0 4 0  1 4 0  2 4 0  3 4 0  4 4 0  5 4 0  6 4 0  7 4 0  0 5 0  1 5 0  2 5 0  3 5 0  4 5 0  5 5 0  6 5 0  7 5 0  0 6 0  1 6 0  2 6 0  3 6 0  4 6 0  5 6 0  6 6 0  7 6 0  0 7 0  1 7 0  2 7 0  3 7 0  4 7 0  5 7 0  6 7 0  7 7 0  0 8 0  1 8 0  2 8 0  3 8 0  4 8 0  5 8 0  6 8 0  7 8 0  </DataArray>
</Points>
<Cells>
<DataArray  type="UInt32"  Name="connectivity"  format="ascii">0 8 9  0 1 9  1 9 10  1 2 10  2 10 11  2 3 11  3 11 12  3 4 12  4 12 13  4 5 13  5 13 14  5 6 14  6 14 15  6 7 15  8 16 17  8 9 17  9 17 18  9 10 18  10 18 19  10 11 19  11 19 20  11 12 20  12 20 21  12 13 21  13 21 22  13 14 22  14 22 23  14 15 23  16 24 25  16 17 25  17 25 26  17 18 26  18 26 27  18 19 27  19 27 28  19 20 28  20 28 29  20 21 29  21 29 30  21 22 30  22 30 31  22 23 31  24 32 33  24 25 33  25 33 34  25 26 34  26 34 35  26 27 35  27 35 36  27 28 36  28 36 37  28 29 37  29 37 38  29 30 38  30 38 39  30 31 39  32 40 41  32 33 41  33 41 42  33 34 42  34 42 43  34 35 43  35 43 44  35 36 44  36 44 45  36 37 45  37 45 46  37 38 46  38 46 47  38 39 47  40 48 49  40 41 49  41 49 50  41 42 50  42 50 51  42 43 51  43 51 52  43 44 52  44 52 53  44 45 53  45 53 54  45 46 54  46 54 55  46 47 55  48 56 57  48 49 57  49 57 58  49 50 58  50 58 59  50 51 59  51 59 60  51 52 60  52 60 61  52 53 61  53 61 62  53 54 62  54 62 63  54 55 63  56 64 65  56 57 65  57 65 66  57 58 66  58 66 67  58 59 67  59 67 68  59 60 68  60 68 69  60 61 69  61 69 70  61 62 70  62 70 71  62 63 71  </DataArray>
<DataArray  type="UInt32"  Name="offsets"  format="ascii">3 6 9 12 15 18 21 24 27 30 33 36 39 42 45 48 51 54 57 60 63 66 69 72 75 78 81 84 87 90 93 96 99 102 105 108 111 114 117 120 123 126 129 132 135 138 141 144 147 150 153 156 159 162 165 168 171 174 177 180 183 186 189 192 195 198 201 204 207 210 213 216 219 222 225 228 231 234 237 240 243 246 249 252 255 258 261 264 267 270 273 276 279 282 285 288 291 294 297 300 303 306 309 312 315 318 321 324 327 330 333 336 </DataArray>
<DataArray  type="UInt8"  Name="types"  format="ascii">5 5 5 5 5 5 5 5 5 5 5 5 5 5 5 5 5 5 5 5 5 5 5 5 5 5 5 5 5 5 5 5 5 5 5 5 5 5 5 5 5 5 5 5 5 5 5 5 5 5 5 5 5 5 5 5 5 5 5 5 5 5 5 5 5 5 5 5 5 5 5 5 5 5 5 5 5 5 5 5 5 5 5 5 5 5 5 5 5 5 5 5 5 5 5 5 5 5 5 5 5 5 5 5 5 5 5 5 5 5 5 5 </DataArray>
</Cells>
<PointData  Scalars="ControlVisualization"> 
<DataArray  type="Float64"  Name="ControlVisualization"  format="ascii">6.6449518291695568e+00  7.1338825423053027e+00  7.3561201994097880e+00  7.4345584062696224e+00  7.5538070343441674e+00  7.6679701514601399e+00  7.4551393463391307e+00  7.2815842953876375e+00  6.1414982537974403e+00  6.6594540180636583e+00  7.1764889990373799e+00  7.2975010872013444e+00  7.3492046176495442e+00  7.3400930247265066e+00  7.0909986641284846e+00  6.8804018092311274e+00  5.7476312875732187e+00  6.0585389514176553e+00  6.6893912233291521e+00  6.9781313485007104e+00  6.9760678358042103e+00  6.7634879397239684e+00  6.2961669709443990e+00  6.0431120539143341e+00  5.3027936998545320e+00  5.5044302342992317e+00  6.0255324178163594e+00  6.3826759381871847e+00  6.3847997052546637e+00  6.0489576236802014e+00  5.5740415812164263e+00  5.2850391559304022e+00  4.8086054536775329e+00  4.9041623490167101e+00  5.2050724848930106e+00  5.5155336722570105e+00  5.5593752444181268e+00  5.2887184731696868e+00  4.8799987254476793e+00  4.6403331967242929e+00  4.3082849526169236e+00  4.3096139312216781e+00  4.3803276721695763e+00  4.5284324497583421e+00  4.5409762205659012e+00  4.4191637710281597e+00  4.1741613915940281e+00  4.0337868141454196e+00  3.8962913341235526e+00  3.8278777009441658e+00  3.7564264635840896e+00  3.6397554473364284e+00  3.6203820072442139e+00  3.6009513814219827e+00  3.5462395292238669e+00  3.4974003192691674e+00  3.6444869046415014e+00  3.5650721237806540e+00  3.3713333332575415e+00  3.1829831398542812e+00  3.0700861773997135e+00  3.0737788284578502e+00  3.1292236916685914e+00  3.1434236586098145e+00  3.5918626511832139e+00  3.4885604261151562e+00  3.2964602555598557e+00  3.0774546905336240e+00  2.9266230989844639e+00  2.9028401159457147e+00  2.9738169672306998e+00  3.0151423368140327e+00  </DataArray> 
</PointData> 
</Piece>
</UnstructuredGrid>
</VTKFile>