<?xml version="1.0"?>
<VTKFile type="UnstructuredGrid"  version="0.1"  >
<UnstructuredGrid>
<Piece  NumberOfPoints="72" NumberOfCells="112">
<Points>
<DataArray  type="Float64"  NumberOfComponents="3"  format="ascii">0 0 0  1 0 0  2 0 0  3 0 0  4 0 0  5 0 0  6 0 0  7 0 0  0 1 0  1 1 0  2 1 0  3 1 0  4 1 0  5 1 0  6 1 0  7 1 0  0 2 0  1 2 0  2 2 0  3 2 0  4 2 0  5 2 0  6 2 0  7 2 0  0 3 0  1 3 0  2 3 0  3 3 0  4 3 0  5 3 0  6 3 0  7 3 0  0 4 0  1 4 0  2 4 0  3 4 0  4 4 0  5 4 0  6 4 0  7 4 0  0 5 0  1 5 0  2 5 0  3 5 0  4 5 0  5 5 0  6 5 0  7 5 0  0 6 0  1 6 0  2 6 0  3 6 0  4 6 0  5 6 0  6 6 0  7 6 0  0 7 0  1 7 0  2 7 0  3 7 0  4 7 0  5 7 0  6 7 0  7 7 0  0 8 0  1 8 0  2 8 0  3 8 0  4 8 0  5 8 0  6 8 0  7 8 0  </DataArray>
</Points>
<Cells>
<DataArray  type="UInt32"  Name="connectivity"  format="ascii">0 8 9  0 1 9  1 9 10  1 2 10  2 10 11  2 3 11  3 11 12  3 4 12  4 12 13  4 5 13  5 13 14  5 6 14  6 14 15  6 7 15  8 16 17  8 9 17  9 17 18  9 10 18  10 18 19  10 11 19  11 19 20  11 12 20  12 20 21  12 13 21  13 21 22  13 14 22  14 22 23  14 15 23  16 24 25  16 17 25  17 25 26  17 18 26  18 26 27  18 19 27  19 27 28  19 20 28  20 28 29  20 21 29  21 29 30  21 22 30  22 30 31  22 23 31  24 32 33  24 25 33  25 33 34  25 26 34  26 34 35  26 27 35  27 35 36  27 28 36  28 36 37  28 29 37  29 37 38  29 30 38  30 38 39  30 31 39  32 40 41  32 33 41  33 41 42  33 34 42  34 42 43  34 35 43  35 43 44  35 36 44  36 44 45  36 37 45  37 45 46  37 38 46  38 46 47  38 39 47  40 48 49  40 41 49  41 49 50  41 42 50  42 50 51  42 43 51  43 51 52  43 44 52  44 52 53  44 45 53  45 53 54  45 46 54  46 54 55  46 47 55  48 56 57  48 49 57  49 57 58  49 50 58  50 58 59  50 51 59  51 59 60  51 52 60  52 60 61  52 53 61  53 61 62  53 54 62  54 62 63  54 55 63  56 64 65  56 57 65  57 65 66  57 58 66  58 66 67  58 59 67  59 67 68  59 60 68  60 68 69  60 61 69  61 69 70  61 62 70  62 70 71  62 63 71  </DataArray>
<DataArray  type="UInt32"  Name="offsets"  format="ascii">3 6 9 12 15 18 21 24 27 30 33 36 39 42 45 48 51 54 57 60 63 66 69 72 75 78 81 84 87 90 93 96 99 102 105 108 111 114 117 120 123 126 129 132 135 138 141 144 147 150 153 156 159 162 165 168 171 174 177 180 183 186 189 192 195 198 201 204 207 210 213 216 219 222 225 228 231 234 237 240 243 246 249 252 255 258 261 264 267 270 273 276 279 282 285 288 291 294 297 300 303 306 309 312 315 318 321 324 327 330 333 336 </DataArray>
<DataArray  type="UInt8"  Name="types"  format="ascii">5 5 5 5 5 5 5 5 5 5 5 5 5 5 5 5 5 5 5 5 5 5 5 5 5 5 5 5 5 5 5 5 5 5 5 5 5 5 5 5 5 5 5 5 5 5 5 5 5 5 5 5 5 5 5 5 5 5 5 5 5 5 5 5 5 5 5 5 5 5 5 5 5 5 5 5 5 5 5 5 5 5 5 5 5 5 5 5 5 5 5 5 5 5 5 5 5 5 5 5 5 5 5 5 5 5 5 5 5 5 5 5 </DataArray>
</Cells>
<PointData  Scalars="ControlVisualization"> 
<DataArray  type="Float64"  Name="ControlVisualization"  format="ascii">2.2711482652373789e+00  2.7002370674550695e+00  2.5760745306862387e+00  2.3171632410452778e+00  2.3625607757500511e+00  2.9488539577262496e+00  3.1644164398470083e+00  3.0919739900285923e+00  2.1692206286241396e+00  2.4770559548780522e+00  2.5703661361959380e+00  2.2744621324542651e+00  2.2238788411350487e+00  2.6452716492757085e+00  3.0606556418851039e+00  2.9332293976160155e+00  2.3144502028534277e+00  2.2820162346416568e+00  2.8723816830761058e+00  2.7077795536632605e+00  2.8495796343011981e+00  2.9564635678582070e+00  2.7158311420109915e+00  2.5284227376499260e+00  2.1986629790563605e+00  2.4025497971913108e+00  2.5591186571334941e+00  3.2604658334310392e+00  3.0651404599472869e+00  2.7804128242393302e+00  2.1834466492636970e+00  2.4435150496814559e+00  2.0290242433358836e+00  2.1230721220715116e+00  2.4780206767744479e+00  2.1987890222544504e+00  3.0261147659554677e+00  2.2865501182410153e+00  2.5755009211588940e+00  1.9458065497563362e+00  1.6329094014462069e+00  2.1347425317496032e+00  1.4141639411284079e+00  2.6206022586319095e+00  2.2568511118636470e+00  2.3059119652308584e+00  2.0146245359296904e+00  1.6134789685340571e+00  1.6143491309996478e+00  1.3329100745267417e+00  1.5401397651410491e+00  1.3421703718682285e+00  1.3131439620330803e+00  1.4081229191920899e+00  1.5699312265825163e+00  1.4569529235190355e+00  1.4600205270993156e+00  1.5003096373042550e+00  1.3037576496307430e+00  1.0000004270572069e+00  1.1130586234903168e+00  1.1852523462735836e+00  1.3340885952122419e+00  1.3939895034972838e+00  1.3629641937668784e+00  1.4141199881249913e+00  1.5890135985113389e+00  1.7662055420900300e+00  1.6393532330805374e+00  1.4119372977851281e+00  1.2979389347010981e+00  1.4354723229040682e+00  </DataArray> 
</PointData> 
</Piece>
</UnstructuredGrid>
</VTKFile>