<?xml version="1.0"?>
<VTKFile type="UnstructuredGrid"  version="0.1"  >
<UnstructuredGrid>
<Piece  NumberOfPoints="72" NumberOfCells="112">
<Points>
<DataArray  type="Float64"  NumberOfComponents="3"  format="ascii">0 0 0  1 0 0  2 0 0  3 0 0  4 0 0  5 0 0  6 0 0  7 0 0  0 1 0  1 1 0  2 1 0  3 1 0  4 1 0  5 1 0  6 1 0  7 1 0  0 2 0  1 2 0  2 2 0  3 2 0  4 2 0  5 2 0  6 2 0  7 2 0  0 3 0  1 3 0  2 3 0  3 3 0  4 3 0  5 3 0  6 3 0  7 3 0  0 4 0  1 4 0  2 4 0  3 4 0  4 4 0  5 4 0  6 4 0  7 4 0  0 5 0  1 5 0  2 5 0  3 5 0  4 5 0  5 5 0  6 5 0  7 5 0  0 6 0  1 6 0  2 6 0  3 6 0  4 6 0  5 6 0  6 6 0  7 6 0  0 7 0  1 7 0  2 7 0  3 7 0  4 7 0  5 7 0  6 7 0  7 7 0  0 8 0  1 8 0  2 8 0  3 8 0  4 8 0  5 8 0  6 8 0  7 8 0  </DataArray>
</Points>
<Cells>
<DataArray  type="UInt32"  Name="connectivity"  format="ascii">0 8 9  0 1 9  1 9 10  1 2 10  2 10 11  2 3 11  3 11 12  3 4 12  4 12 13  4 5 13  5 13 14  5 6 14  6 14 15  6 7 15  8 16 17  8 9 17  9 17 18  9 10 18  10 18 19  10 11 19  11 19 20  11 12 20  12 20 21  12 13 21  13 21 22  13 14 22  14 22 23  14 15 23  16 24 25  16 17 25  17 25 26  17 18 26  18 26 27  18 19 27  19 27 28  19 20 28  20 28 29  20 21 29  21 29 30  21 22 30  22 30 31  22 23 31  24 32 33  24 25 33  25 33 34  25 26 34  26 34 35  26 27 35  27 35 36  27 28 36  28 36 37  28 29 37  29 37 38  29 30 38  30 38 39  30 31 39  32 40 41  32 33 41  33 41 42  33 34 42  34 42 43  34 35 43  35 43 44  35 36 44  36 44 45  36 37 45  37 45 46  37 38 46  38 46 47  38 39 47  40 48 49  40 41 49  41 49 50  41 42 50  42 50 51  42 43 51  43 51 52  43 44 52  44 52 53  44 45 53  45 53 54  45 46 54  46 54 55  46 47 55  48 56 57  48 49 57  49 57 58  49 50 58  50 58 59  50 51 59  51 59 60  51 52 60  52 60 61  52 53 61  53 61 62  53 54 62  54 62 63  54 55 63  56 64 65  56 57 65  57 65 66  57 58 66  58 66 67  58 59 67  59 67 68  59 60 68  60 68 69  60 61 69  61 69 70  61 62 70  62 70 71  62 63 71  </DataArray>
<DataArray  type="UInt32"  Name="offsets"  format="ascii">3 6 9 12 15 18 21 24 27 30 33 36 39 42 45 48 51 54 57 60 63 66 69 72 75 78 81 84 87 90 93 96 99 102 105 108 111 114 117 120 123 126 129 132 135 138 141 144 147 150 153 156 159 162 165 168 171 174 177 180 183 186 189 192 195 198 201 204 207 210 213 216 219 222 225 228 231 234 237 240 243 246 249 252 255 258 261 264 267 270 273 276 279 282 285 288 291 294 297 300 303 306 309 312 315 318 321 324 327 330 333 336 </DataArray>
<DataArray  type="UInt8"  Name="types"  format="ascii">5 5 5 5 5 5 5 5 5 5 5 5 5 5 5 5 5 5 5 5 5 5 5 5 5 5 5 5 5 5 5 5 5 5 5 5 5 5 5 5 5 5 5 5 5 5 5 5 5 5 5 5 5 5 5 5 5 5 5 5 5 5 5 5 5 5 5 5 5 5 5 5 5 5 5 5 5 5 5 5 5 5 5 5 5 5 5 5 5 5 5 5 5 5 5 5 5 5 5 5 5 5 5 5 5 5 5 5 5 5 5 5 </DataArray>
</Cells>
<PointData  Scalars="ControlVisualization"> 
<DataArray  type="Float64"  Name="ControlVisualization"  format="ascii">1.0109957937211720e+00  1.1211596403303588e+00  1.0985302826114596e+00  1.0527275458401977e+00  1.2024146704584706e+00  1.4042691860700205e+00  1.4118746790107024e+00  1.4232173551559739e+00  1.0138554088051288e+00  1.1326850089386669e+00  1.2018187434444709e+00  1.1725366790628349e+00  1.2370007359423953e+00  1.3452108328622732e+00  1.3454208719776197e+00  1.2816639720059704e+00  1.0426745820520422e+00  1.1403315169065094e+00  1.4344800948749505e+00  1.5520953394193928e+00  1.5048380305334839e+00  1.4158673014490268e+00  1.2089846465465168e+00  1.1286544954002022e+00  1.1135260548452932e+00  1.1516500169922670e+00  1.5206859403787945e+00  1.8622391633477646e+00  1.8579070531657151e+00  1.5406228385701382e+00  1.2399816641412853e+00  1.1000591413326573e+00  1.1667671422637684e+00  1.1799488303195005e+00  1.3562711264851794e+00  1.7662642299396356e+00  1.8355618472947772e+00  1.6186880799510042e+00  1.3218599217392024e+00  1.1911069077946606e+00  1.1386425867426493e+00  1.1141162016799093e+00  1.1275540487448232e+00  1.3135099361621401e+00  1.4500429028025155e+00  1.3589812838586202e+00  1.2467672609707163e+00  1.2140315831552018e+00  1.0745746204109921e+00  1.0538780473832787e+00  1.0088184096511394e+00  1.0078724004041133e+00  1.0000000833631491e+00  1.0659680085377421e+00  1.0761992416991824e+00  1.1072234092481277e+00  1.0642643809147332e+00  1.0368545255406869e+00  1.0077158105735282e+00  1.0033447803545126e+00  1.0025230521011721e+00  1.0044687559697674e+00  1.0246561047485478e+00  1.0561400805220198e+00  1.1065270023836220e+00  1.0565726726378257e+00  1.0273096467246206e+00  1.0060909907390212e+00  1.0000012017883895e+00  1.0117098891321368e+00  1.0210187051944055e+00  1.0763571958042872e+00  </DataArray> 
</PointData> 
</Piece>
</UnstructuredGrid>
</VTKFile>