<?xml version="1.0"?>
<VTKFile type="UnstructuredGrid"  version="0.1"  >
<UnstructuredGrid>
<Piece  NumberOfPoints="72" NumberOfCells="112">
<Points>
<DataArray  type="Float64"  NumberOfComponents="3"  format="ascii">0 0 0  1 0 0  2 0 0  3 0 0  4 0 0  5 0 0  6 0 0  7 0 0  0 1 0  1 1 0  2 1 0  3 1 0  4 1 0  5 1 0  6 1 0  7 1 0  0 2 0  1 2 0  2 2 0  3 2 0  4 2 0  5 2 0  6 2 0  7 2 0  0 3 0  1 3 0  2 3 0  3 3 0  4 3 0  5 3 0  6 3 0  7 3 0  0 4 0  1 4 0  2 4 0  3 4 0  4 4 0  5 4 0  6 4 0  7 4 0  0 5 0  1 5 0  2 5 0  3 5 0  4 5 0  5 5 0  6 5 0  7 5 0  0 6 0  1 6 0  2 6 0  3 6 0  4 6 0  5 6 0  6 6 0  7 6 0  0 7 0  1 7 0  2 7 0  3 7 0  4 7 0  5 7 0  6 7 0  7 7 0  0 8 0  1 8 0  2 8 0  3 8 0  4 8 0  5 8 0  6 8 0  7 8 0  </DataArray>
</Points>
<Cells>
<DataArray  type="UInt32"  Name="connectivity"  format="ascii">0 8 9  0 1 9  1 9 10  1 2 10  2 10 11  2 3 11  3 11 12  3 4 12  4 12 13  4 5 13  5 13 14  5 6 14  6 14 15  6 7 15  8 16 17  8 9 17  9 17 18  9 10 18  10 18 19  10 11 19  11 19 20  11 12 20  12 20 21  12 13 21  13 21 22  13 14 22  14 22 23  14 15 23  16 24 25  16 17 25  17 25 26  17 18 26  18 26 27  18 19 27  19 27 28  19 20 28  20 28 29  20 21 29  21 29 30  21 22 30  22 30 31  22 23 31  24 32 33  24 25 33  25 33 34  25 26 34  26 34 35  26 27 35  27 35 36  27 28 36  28 36 37  28 29 37  29 37 38  29 30 38  30 38 39  30 31 39  32 40 41  32 33 41  33 41 42  33 34 42  34 42 43  34 35 43  35 43 44  35 36 44  36 44 45  36 37 45  37 45 46  37 38 46  38 46 47  38 39 47  40 48 49  40 41 49  41 49 50  41 42 50  42 50 51  42 43 51  43 51 52  43 44 52  44 52 53  44 45 53  45 53 54  45 46 54  46 54 55  46 47 55  48 56 57  48 49 57  49 57 58  49 50 58  50 58 59  50 51 59  51 59 60  51 52 60  52 60 61  52 53 61  53 61 62  53 54 62  54 62 63  54 55 63  56 64 65  56 57 65  57 65 66  57 58 66  58 66 67  58 59 67  59 67 68  59 60 68  60 68 69  60 61 69  61 69 70  61 62 70  62 70 71  62 63 71  </DataArray>
<DataArray  type="UInt32"  Name="offsets"  format="ascii">3 6 9 12 15 18 21 24 27 30 33 36 39 42 45 48 51 54 57 60 63 66 69 72 75 78 81 84 87 90 93 96 99 102 105 108 111 114 117 120 123 126 129 132 135 138 141 144 147 150 153 156 159 162 165 168 171 174 177 180 183 186 189 192 195 198 201 204 207 210 213 216 219 222 225 228 231 234 237 240 243 246 249 252 255 258 261 264 267 270 273 276 279 282 285 288 291 294 297 300 303 306 309 312 315 318 321 324 327 330 333 336 </DataArray>
<DataArray  type="UInt8"  Name="types"  format="ascii">5 5 5 5 5 5 5 5 5 5 5 5 5 5 5 5 5 5 5 5 5 5 5 5 5 5 5 5 5 5 5 5 5 5 5 5 5 5 5 5 5 5 5 5 5 5 5 5 5 5 5 5 5 5 5 5 5 5 5 5 5 5 5 5 5 5 5 5 5 5 5 5 5 5 5 5 5 5 5 5 5 5 5 5 5 5 5 5 5 5 5 5 5 5 5 5 5 5 5 5 5 5 5 5 5 5 5 5 5 5 5 5 </DataArray>
</Cells>
<PointData  Scalars="ControlVisualization"> 
<DataArray  type="Float64"  Name="ControlVisualization"  format="ascii">1.0426231886747417e+00  1.1083165691715287e+00  1.0614590093346261e+00  1.0177853608948628e+00  1.1548572062698224e+00  1.3107069002847849e+00  1.2986190215081075e+00  1.2925730387919643e+00  1.0351721072232178e+00  1.1127779091095127e+00  1.2019421586354904e+00  1.1589046633594633e+00  1.1874213554880289e+00  1.3047270831094853e+00  1.2461969721835475e+00  1.2054874368055544e+00  1.0297562569606435e+00  1.1204706278006429e+00  1.4046475548636626e+00  1.5271841509605852e+00  1.4822340864060086e+00  1.3297002487984735e+00  1.1630350055755543e+00  1.0637314419648343e+00  1.0834068601896483e+00  1.1463238800835431e+00  1.5210361042515030e+00  1.8634367933585885e+00  1.8355540236945256e+00  1.5281062784075714e+00  1.1772348105889081e+00  1.0579757508132206e+00  1.1499389085746829e+00  1.1571073207878002e+00  1.3562992869078705e+00  1.7393800649163880e+00  1.8405675975931484e+00  1.5594993529055885e+00  1.2831846612126259e+00  1.1678923048300380e+00  1.1249459277470237e+00  1.1094788535665867e+00  1.1134742367994483e+00  1.3071711509447457e+00  1.4373620821796667e+00  1.3611291673831212e+00  1.2206441659245690e+00  1.1909048666518136e+00  1.0598736236566073e+00  1.0371770512663268e+00  1.0005233044369954e+00  1.0005632680495633e+00  1.0281180432290855e+00  1.0416901883950580e+00  1.0706480283947437e+00  1.0867358319841851e+00  1.0324752280485034e+00  1.0086527480368896e+00  1.0000177044867786e+00  1.0001978887578216e+00  1.0002441788505658e+00  1.0001057114756942e+00  1.0014799427280405e+00  1.0170871925270397e+00  1.0449420441702069e+00  1.0194542023828101e+00  1.0064431197388153e+00  1.0013526471371554e+00  1.0002088206055124e+00  1.0013633484950570e+00  1.0006136334943943e+00  1.0000000397234463e+00  </DataArray> 
</PointData> 
</Piece>
</UnstructuredGrid>
</VTKFile>