<?xml version="1.0"?>
<VTKFile type="UnstructuredGrid"  version="0.1"  >
<UnstructuredGrid>
<Piece  NumberOfPoints="72" NumberOfCells="112">
<Points>
<DataArray  type="Float64"  NumberOfComponents="3"  format="ascii">0 0 0  1 0 0  2 0 0  3 0 0  4 0 0  5 0 0  6 0 0  7 0 0  0 1 0  1 1 0  2 1 0  3 1 0  4 1 0  5 1 0  6 1 0  7 1 0  0 2 0  1 2 0  2 2 0  3 2 0  4 2 0  5 2 0  6 2 0  7 2 0  0 3 0  1 3 0  2 3 0  3 3 0  4 3 0  5 3 0  6 3 0  7 3 0  0 4 0  1 4 0  2 4 0  3 4 0  4 4 0  5 4 0  6 4 0  7 4 0  0 5 0  1 5 0  2 5 0  3 5 0  4 5 0  5 5 0  6 5 0  7 5 0  0 6 0  1 6 0  2 6 0  3 6 0  4 6 0  5 6 0  6 6 0  7 6 0  0 7 0  1 7 0  2 7 0  3 7 0  4 7 0  5 7 0  6 7 0  7 7 0  0 8 0  1 8 0  2 8 0  3 8 0  4 8 0  5 8 0  6 8 0  7 8 0  </DataArray>
</Points>
<Cells>
<DataArray  type="UInt32"  Name="connectivity"  format="ascii">0 8 9  0 1 9  1 9 10  1 2 10  2 10 11  2 3 11  3 11 12  3 4 12  4 12 13  4 5 13  5 13 14  5 6 14  6 14 15  6 7 15  8 16 17  8 9 17  9 17 18  9 10 18  10 18 19  10 11 19  11 19 20  11 12 20  12 20 21  12 13 21  13 21 22  13 14 22  14 22 23  14 15 23  16 24 25  16 17 25  17 25 26  17 18 26  18 26 27  18 19 27  19 27 28  19 20 28  20 28 29  20 21 29  21 29 30  21 22 30  22 30 31  22 23 31  24 32 33  24 25 33  25 33 34  25 26 34  26 34 35  26 27 35  27 35 36  27 28 36  28 36 37  28 29 37  29 37 38  29 30 38  30 38 39  30 31 39  32 40 41  32 33 41  33 41 42  33 34 42  34 42 43  34 35 43  35 43 44  35 36 44  36 44 45  36 37 45  37 45 46  37 38 46  38 46 47  38 39 47  40 48 49  40 41 49  41 49 50  41 42 50  42 50 51  42 43 51  43 51 52  43 44 52  44 52 53  44 45 53  45 53 54  45 46 54  46 54 55  46 47 55  48 56 57  48 49 57  49 57 58  49 50 58  50 58 59  50 51 59  51 59 60  51 52 60  52 60 61  52 53 61  53 61 62  53 54 62  54 62 63  54 55 63  56 64 65  56 57 65  57 65 66  57 58 66  58 66 67  58 59 67  59 67 68  59 60 68  60 68 69  60 61 69  61 69 70  61 62 70  62 70 71  62 63 71  </DataArray>
<DataArray  type="UInt32"  Name="offsets"  format="ascii">3 6 9 12 15 18 21 24 27 30 33 36 39 42 45 48 51 54 57 60 63 66 69 72 75 78 81 84 87 90 93 96 99 102 105 108 111 114 117 120 123 126 129 132 135 138 141 144 147 150 153 156 159 162 165 168 171 174 177 180 183 186 189 192 195 198 201 204 207 210 213 216 219 222 225 228 231 234 237 240 243 246 249 252 255 258 261 264 267 270 273 276 279 282 285 288 291 294 297 300 303 306 309 312 315 318 321 324 327 330 333 336 </DataArray>
<DataArray  type="UInt8"  Name="types"  format="ascii">5 5 5 5 5 5 5 5 5 5 5 5 5 5 5 5 5 5 5 5 5 5 5 5 5 5 5 5 5 5 5 5 5 5 5 5 5 5 5 5 5 5 5 5 5 5 5 5 5 5 5 5 5 5 5 5 5 5 5 5 5 5 5 5 5 5 5 5 5 5 5 5 5 5 5 5 5 5 5 5 5 5 5 5 5 5 5 5 5 5 5 5 5 5 5 5 5 5 5 5 5 5 5 5 5 5 5 5 5 5 5 5 </DataArray>
</Cells>
<PointData  Scalars="ControlVisualization"> 
<DataArray  type="Float64"  Name="ControlVisualization"  format="ascii">6.8598558241117980e+00  7.2772348129099864e+00  7.4469370591182811e+00  7.2248671802085482e+00  7.5461398099477321e+00  7.7894549285592909e+00  7.7275374398283407e+00  7.6146569266404001e+00  6.4258258102789449e+00  6.8796857668803808e+00  7.1547525596832404e+00  7.4057233651118768e+00  7.0431232977672718e+00  7.1279332860042217e+00  7.5088141854993840e+00  7.1108815983201037e+00  5.9779123913910315e+00  6.2003961544005373e+00  6.7288150761737011e+00  6.5291065458279025e+00  6.4719990054988177e+00  7.1275531429642891e+00  6.2751812471139861e+00  6.4489891833151693e+00  5.5035974024397829e+00  5.1893618285137268e+00  6.7818695338740822e+00  6.5759797140009173e+00  6.9032453603131927e+00  6.2233988414773771e+00  5.8019955657055808e+00  5.3664303911570848e+00  4.6950586409638779e+00  5.4114786648838642e+00  5.1554012863090266e+00  5.4375879596125909e+00  5.5011626833619083e+00  5.4627461064353247e+00  4.8657611717525207e+00  4.7232335521877955e+00  4.3593570996999071e+00  4.2216444794029284e+00  3.9286981852602878e+00  4.2102302345787708e+00  4.2175887489259560e+00  4.1056078070603323e+00  4.1329146815842375e+00  4.0138394689528401e+00  3.8223589219804737e+00  3.4190764311205672e+00  3.4910427333688432e+00  3.2655076510890400e+00  3.3677622833944612e+00  3.2559961375390718e+00  3.2424183779891846e+00  3.2457467572599961e+00  3.2571523662535689e+00  3.3199789830841309e+00  2.9238164281212713e+00  2.9532647231883500e+00  2.7625262945785920e+00  2.6774687045107814e+00  2.6962375039245670e+00  2.6734681392697413e+00  3.0575229101018819e+00  3.0587529969372560e+00  3.0235958679400730e+00  2.7867669139446365e+00  2.5905841352115195e+00  2.5002820249737105e+00  2.4700754834370420e+00  2.4041058605666494e+00  </DataArray> 
</PointData> 
</Piece>
</UnstructuredGrid>
</VTKFile>