<?xml version="1.0"?>
<VTKFile type="UnstructuredGrid"  version="0.1"  >
<UnstructuredGrid>
<Piece  NumberOfPoints="72" NumberOfCells="112">
<Points>
<DataArray  type="Float64"  NumberOfComponents="3"  format="ascii">0 0 0  1 0 0  2 0 0  3 0 0  4 0 0  5 0 0  6 0 0  7 0 0  0 1 0  1 1 0  2 1 0  3 1 0  4 1 0  5 1 0  6 1 0  7 1 0  0 2 0  1 2 0  2 2 0  3 2 0  4 2 0  5 2 0  6 2 0  7 2 0  0 3 0  1 3 0  2 3 0  3 3 0  4 3 0  5 3 0  6 3 0  7 3 0  0 4 0  1 4 0  2 4 0  3 4 0  4 4 0  5 4 0  6 4 0  7 4 0  0 5 0  1 5 0  2 5 0  3 5 0  4 5 0  5 5 0  6 5 0  7 5 0  0 6 0  1 6 0  2 6 0  3 6 0  4 6 0  5 6 0  6 6 0  7 6 0  0 7 0  1 7 0  2 7 0  3 7 0  4 7 0  5 7 0  6 7 0  7 7 0  0 8 0  1 8 0  2 8 0  3 8 0  4 8 0  5 8 0  6 8 0  7 8 0  </DataArray>
</Points>
<Cells>
<DataArray  type="UInt32"  Name="connectivity"  format="ascii">0 8 9  0 1 9  1 9 10  1 2 10  2 10 11  2 3 11  3 11 12  3 4 12  4 12 13  4 5 13  5 13 14  5 6 14  6 14 15  6 7 15  8 16 17  8 9 17  9 17 18  9 10 18  10 18 19  10 11 19  11 19 20  11 12 20  12 20 21  12 13 21  13 21 22  13 14 22  14 22 23  14 15 23  16 24 25  16 17 25  17 25 26  17 18 26  18 26 27  18 19 27  19 27 28  19 20 28  20 28 29  20 21 29  21 29 30  21 22 30  22 30 31  22 23 31  24 32 33  24 25 33  25 33 34  25 26 34  26 34 35  26 27 35  27 35 36  27 28 36  28 36 37  28 29 37  29 37 38  29 30 38  30 38 39  30 31 39  32 40 41  32 33 41  33 41 42  33 34 42  34 42 43  34 35 43  35 43 44  35 36 44  36 44 45  36 37 45  37 45 46  37 38 46  38 46 47  38 39 47  40 48 49  40 41 49  41 49 50  41 42 50  42 50 51  42 43 51  43 51 52  43 44 52  44 52 53  44 45 53  45 53 54  45 46 54  46 54 55  46 47 55  48 56 57  48 49 57  49 57 58  49 50 58  50 58 59  50 51 59  51 59 60  51 52 60  52 60 61  52 53 61  53 61 62  53 54 62  54 62 63  54 55 63  56 64 65  56 57 65  57 65 66  57 58 66  58 66 67  58 59 67  59 67 68  59 60 68  60 68 69  60 61 69  61 69 70  61 62 70  62 70 71  62 63 71  </DataArray>
<DataArray  type="UInt32"  Name="offsets"  format="ascii">3 6 9 12 15 18 21 24 27 30 33 36 39 42 45 48 51 54 57 60 63 66 69 72 75 78 81 84 87 90 93 96 99 102 105 108 111 114 117 120 123 126 129 132 135 138 141 144 147 150 153 156 159 162 165 168 171 174 177 180 183 186 189 192 195 198 201 204 207 210 213 216 219 222 225 228 231 234 237 240 243 246 249 252 255 258 261 264 267 270 273 276 279 282 285 288 291 294 297 300 303 306 309 312 315 318 321 324 327 330 333 336 </DataArray>
<DataArray  type="UInt8"  Name="types"  format="ascii">5 5 5 5 5 5 5 5 5 5 5 5 5 5 5 5 5 5 5 5 5 5 5 5 5 5 5 5 5 5 5 5 5 5 5 5 5 5 5 5 5 5 5 5 5 5 5 5 5 5 5 5 5 5 5 5 5 5 5 5 5 5 5 5 5 5 5 5 5 5 5 5 5 5 5 5 5 5 5 5 5 5 5 5 5 5 5 5 5 5 5 5 5 5 5 5 5 5 5 5 5 5 5 5 5 5 5 5 5 5 5 5 </DataArray>
</Cells>
<PointData  Scalars="ControlVisualization"> 
<DataArray  type="Float64"  Name="ControlVisualization"  format="ascii">1.0459999952280858e+00  1.1182238634257780e+00  1.0787757513826386e+00  1.0000517866887362e+00  1.1115880196311587e+00  1.2773263462889162e+00  1.2598317631634495e+00  1.2095500544349218e+00  1.0219517024080496e+00  1.1204995821533987e+00  1.1976757533590212e+00  1.1402424877191224e+00  1.1641279992800522e+00  1.2552129755490711e+00  1.2167462825023754e+00  1.1689039972760527e+00  1.0243773390285922e+00  1.1358494731640489e+00  1.4169935503314015e+00  1.5187661644257122e+00  1.4478686187100411e+00  1.3043231887385367e+00  1.1456500947319586e+00  1.0587764973215801e+00  1.1025501405008913e+00  1.1449059648911080e+00  1.5079330581181523e+00  1.8454454317007425e+00  1.8017093273990124e+00  1.4839135785811564e+00  1.1760286230432186e+00  1.0565315691537545e+00  1.1633414961105164e+00  1.1462211749816487e+00  1.3477913839007376e+00  1.7332846798748776e+00  1.8165514138101759e+00  1.5503863378037801e+00  1.2635949888918578e+00  1.1550659182338503e+00  1.1252054783001508e+00  1.0973682253421035e+00  1.1035556366150341e+00  1.2964239023998503e+00  1.4193214369951128e+00  1.3325649958085073e+00  1.1958749956848238e+00  1.1594147075349113e+00  1.0477816306256813e+00  1.0321415742613700e+00  1.0000063006670925e+00  1.0000052998073559e+00  1.0101626018625633e+00  1.0389257965311340e+00  1.0408413688363054e+00  1.0517521865152992e+00  1.0022963905715943e+00  1.0000958334625618e+00  1.0000050580361481e+00  1.0000022479676349e+00  1.0000018215980753e+00  1.0000028173085993e+00  1.0000080038946535e+00  1.0001089706472919e+00  9.9999999088639369e-01  1.0000923174359873e+00  1.0000186766282355e+00  1.0000063461509072e+00  1.0000041257583738e+00  1.0000046526755682e+00  1.0000100771516565e+00  1.0000506758439425e+00  </DataArray> 
</PointData> 
</Piece>
</UnstructuredGrid>
</VTKFile>