<?xml version="1.0"?>
<VTKFile type="UnstructuredGrid"  version="0.1"  >
<UnstructuredGrid>
<Piece  NumberOfPoints="72" NumberOfCells="112">
<Points>
<DataArray  type="Float64"  NumberOfComponents="3"  format="ascii">0 0 0  1 0 0  2 0 0  3 0 0  4 0 0  5 0 0  6 0 0  7 0 0  0 1 0  1 1 0  2 1 0  3 1 0  4 1 0  5 1 0  6 1 0  7 1 0  0 2 0  1 2 0  2 2 0  3 2 0  4 2 0  5 2 0  6 2 0  7 2 0  0 3 0  1 3 0  2 3 0  3 3 0  4 3 0  5 3 0  6 3 0  7 3 0  0 4 0  1 4 0  2 4 0  3 4 0  4 4 0  5 4 0  6 4 0  7 4 0  0 5 0  1 5 0  2 5 0  3 5 0  4 5 0  5 5 0  6 5 0  7 5 0  0 6 0  1 6 0  2 6 0  3 6 0  4 6 0  5 6 0  6 6 0  7 6 0  0 7 0  1 7 0  2 7 0  3 7 0  4 7 0  5 7 0  6 7 0  7 7 0  0 8 0  1 8 0  2 8 0  3 8 0  4 8 0  5 8 0  6 8 0  7 8 0  </DataArray>
</Points>
<Cells>
<DataArray  type="UInt32"  Name="connectivity"  format="ascii">0 8 9  0 1 9  1 9 10  1 2 10  2 10 11  2 3 11  3 11 12  3 4 12  4 12 13  4 5 13  5 13 14  5 6 14  6 14 15  6 7 15  8 16 17  8 9 17  9 17 18  9 10 18  10 18 19  10 11 19  11 19 20  11 12 20  12 20 21  12 13 21  13 21 22  13 14 22  14 22 23  14 15 23  16 24 25  16 17 25  17 25 26  17 18 26  18 26 27  18 19 27  19 27 28  19 20 28  20 28 29  20 21 29  21 29 30  21 22 30  22 30 31  22 23 31  24 32 33  24 25 33  25 33 34  25 26 34  26 34 35  26 27 35  27 35 36  27 28 36  28 36 37  28 29 37  29 37 38  29 30 38  30 38 39  30 31 39  32 40 41  32 33 41  33 41 42  33 34 42  34 42 43  34 35 43  35 43 44  35 36 44  36 44 45  36 37 45  37 45 46  37 38 46  38 46 47  38 39 47  40 48 49  40 41 49  41 49 50  41 42 50  42 50 51  42 43 51  43 51 52  43 44 52  44 52 53  44 45 53  45 53 54  45 46 54  46 54 55  46 47 55  48 56 57  48 49 57  49 57 58  49 50 58  50 58 59  50 51 59  51 59 60  51 52 60  52 60 61  52 53 61  53 61 62  53 54 62  54 62 63  54 55 63  56 64 65  56 57 65  57 65 66  57 58 66  58 66 67  58 59 67  59 67 68  59 60 68  60 68 69  60 61 69  61 69 70  61 62 70  62 70 71  62 63 71  </DataArray>
<DataArray  type="UInt32"  Name="offsets"  format="ascii">3 6 9 12 15 18 21 24 27 30 33 36 39 42 45 48 51 54 57 60 63 66 69 72 75 78 81 84 87 90 93 96 99 102 105 108 111 114 117 120 123 126 129 132 135 138 141 144 147 150 153 156 159 162 165 168 171 174 177 180 183 186 189 192 195 198 201 204 207 210 213 216 219 222 225 228 231 234 237 240 243 246 249 252 255 258 261 264 267 270 273 276 279 282 285 288 291 294 297 300 303 306 309 312 315 318 321 324 327 330 333 336 </DataArray>
<DataArray  type="UInt8"  Name="types"  format="ascii">5 5 5 5 5 5 5 5 5 5 5 5 5 5 5 5 5 5 5 5 5 5 5 5 5 5 5 5 5 5 5 5 5 5 5 5 5 5 5 5 5 5 5 5 5 5 5 5 5 5 5 5 5 5 5 5 5 5 5 5 5 5 5 5 5 5 5 5 5 5 5 5 5 5 5 5 5 5 5 5 5 5 5 5 5 5 5 5 5 5 5 5 5 5 5 5 5 5 5 5 5 5 5 5 5 5 5 5 5 5 5 5 </DataArray>
</Cells>
<PointData  Scalars="ControlVisualization"> 
<DataArray  type="Float64"  Name="ControlVisualization"  format="ascii">6.0919907891291594e+00  6.2861311743838453e+00  6.4849957506833258e+00  6.5039366776084853e+00  6.7436543052316278e+00  6.8362011174716724e+00  6.6959569378128876e+00  6.6156612540791606e+00  5.3821876773562378e+00  5.7988912598924758e+00  6.0639731296275574e+00  6.5148699139864563e+00  6.5009118747363219e+00  6.4030871504030884e+00  6.1214622467750806e+00  6.0881290475722603e+00  4.8290484195204382e+00  5.2087138294775954e+00  5.7589512627617578e+00  5.8196553706117156e+00  5.8684502383674033e+00  5.7660925828530925e+00  5.4576941705700301e+00  5.1317671124684150e+00  4.4322055483504563e+00  4.5249063662670022e+00  5.2376569281680023e+00  5.6486110626903789e+00  5.5018146377957020e+00  5.3801592355221066e+00  4.7150129042076721e+00  4.3408275478924745e+00  4.0291309140104037e+00  4.0708546013297662e+00  4.6152281449935080e+00  4.7593859305906774e+00  4.9435435682012114e+00  4.5989823769895102e+00  4.0779302276566689e+00  3.9648125613561147e+00  3.6924554069513502e+00  3.7359587800815888e+00  3.7328386815671379e+00  3.8053407182200014e+00  3.8597108955672406e+00  3.8770147831414925e+00  3.5962368648674277e+00  3.5747477016154945e+00  3.3441101364522545e+00  3.2803306044349947e+00  3.2767206600910042e+00  3.2289969316605016e+00  3.3559009344093411e+00  3.1543728770866579e+00  3.1374591231266447e+00  3.0723623687879984e+00  3.0299159921588403e+00  3.0146547127631487e+00  2.8733397112113499e+00  2.9349581679089933e+00  2.6941191892840717e+00  2.6939503530505853e+00  2.6805660741452755e+00  2.6584738728098127e+00  2.8956067023718322e+00  2.8919786009687907e+00  2.7748685613919690e+00  2.5203816500766214e+00  2.4381739817071160e+00  2.4577194270002125e+00  2.4875126311374149e+00  2.3995932448513089e+00  </DataArray> 
</PointData> 
</Piece>
</UnstructuredGrid>
</VTKFile>