<?xml version="1.0"?>
<VTKFile type="UnstructuredGrid"  version="0.1"  >
<UnstructuredGrid>
<Piece  NumberOfPoints="72" NumberOfCells="112">
<Points>
<DataArray  type="Float64"  NumberOfComponents="3"  format="ascii">0 0 0  1 0 0  2 0 0  3 0 0  4 0 0  5 0 0  6 0 0  7 0 0  0 1 0  1 1 0  2 1 0  3 1 0  4 1 0  5 1 0  6 1 0  7 1 0  0 2 0  1 2 0  2 2 0  3 2 0  4 2 0  5 2 0  6 2 0  7 2 0  0 3 0  1 3 0  2 3 0  3 3 0  4 3 0  5 3 0  6 3 0  7 3 0  0 4 0  1 4 0  2 4 0  3 4 0  4 4 0  5 4 0  6 4 0  7 4 0  0 5 0  1 5 0  2 5 0  3 5 0  4 5 0  5 5 0  6 5 0  7 5 0  0 6 0  1 6 0  2 6 0  3 6 0  4 6 0  5 6 0  6 6 0  7 6 0  0 7 0  1 7 0  2 7 0  3 7 0  4 7 0  5 7 0  6 7 0  7 7 0  0 8 0  1 8 0  2 8 0  3 8 0  4 8 0  5 8 0  6 8 0  7 8 0  </DataArray>
</Points>
<Cells>
<DataArray  type="UInt32"  Name="connectivity"  format="ascii">0 8 9  0 1 9  1 9 10  1 2 10  2 10 11  2 3 11  3 11 12  3 4 12  4 12 13  4 5 13  5 13 14  5 6 14  6 14 15  6 7 15  8 16 17  8 9 17  9 17 18  9 10 18  10 18 19  10 11 19  11 19 20  11 12 20  12 20 21  12 13 21  13 21 22  13 14 22  14 22 23  14 15 23  16 24 25  16 17 25  17 25 26  17 18 26  18 26 27  18 19 27  19 27 28  19 20 28  20 28 29  20 21 29  21 29 30  21 22 30  22 30 31  22 23 31  24 32 33  24 25 33  25 33 34  25 26 34  26 34 35  26 27 35  27 35 36  27 28 36  28 36 37  28 29 37  29 37 38  29 30 38  30 38 39  30 31 39  32 40 41  32 33 41  33 41 42  33 34 42  34 42 43  34 35 43  35 43 44  35 36 44  36 44 45  36 37 45  37 45 46  37 38 46  38 46 47  38 39 47  40 48 49  40 41 49  41 49 50  41 42 50  42 50 51  42 43 51  43 51 52  43 44 52  44 52 53  44 45 53  45 53 54  45 46 54  46 54 55  46 47 55  48 56 57  48 49 57  49 57 58  49 50 58  50 58 59  50 51 59  51 59 60  51 52 60  52 60 61  52 53 61  53 61 62  53 54 62  54 62 63  54 55 63  56 64 65  56 57 65  57 65 66  57 58 66  58 66 67  58 59 67  59 67 68  59 60 68  60 68 69  60 61 69  61 69 70  61 62 70  62 70 71  62 63 71  </DataArray>
<DataArray  type="UInt32"  Name="offsets"  format="ascii">3 6 9 12 15 18 21 24 27 30 33 36 39 42 45 48 51 54 57 60 63 66 69 72 75 78 81 84 87 90 93 96 99 102 105 108 111 114 117 120 123 126 129 132 135 138 141 144 147 150 153 156 159 162 165 168 171 174 177 180 183 186 189 192 195 198 201 204 207 210 213 216 219 222 225 228 231 234 237 240 243 246 249 252 255 258 261 264 267 270 273 276 279 282 285 288 291 294 297 300 303 306 309 312 315 318 321 324 327 330 333 336 </DataArray>
<DataArray  type="UInt8"  Name="types"  format="ascii">5 5 5 5 5 5 5 5 5 5 5 5 5 5 5 5 5 5 5 5 5 5 5 5 5 5 5 5 5 5 5 5 5 5 5 5 5 5 5 5 5 5 5 5 5 5 5 5 5 5 5 5 5 5 5 5 5 5 5 5 5 5 5 5 5 5 5 5 5 5 5 5 5 5 5 5 5 5 5 5 5 5 5 5 5 5 5 5 5 5 5 5 5 5 5 5 5 5 5 5 5 5 5 5 5 5 5 5 5 5 5 5 </DataArray>
</Cells>
<PointData  Scalars="ControlVisualization"> 
<DataArray  type="Float64"  Name="ControlVisualization"  format="ascii">1.0446139502751643e+00  1.1186097342280670e+00  1.0791324744764710e+00  1.0000496827288123e+00  1.1116486675588064e+00  1.2776092407632427e+00  1.2602692063379561e+00  1.2111354577851072e+00  1.0211363114133996e+00  1.1208991634063257e+00  1.1982194102894341e+00  1.1402385488507398e+00  1.1637359789265744e+00  1.2550706457792544e+00  1.2191852555912535e+00  1.1689653036648875e+00  1.0258552593939791e+00  1.1343911342611930e+00  1.4165376813943902e+00  1.5192983895741818e+00  1.4466099229067122e+00  1.3057601025776260e+00  1.1426926877776271e+00  1.0588175155187971e+00  1.1030504248576301e+00  1.1460643002503215e+00  1.5078547676566447e+00  1.8449301138253171e+00  1.8025142060308899e+00  1.4825367238881202e+00  1.1764648429936253e+00  1.0551227177836344e+00  1.1633839154322341e+00  1.1470340309984626e+00  1.3476037547041770e+00  1.7339635650571268e+00  1.8159345290208044e+00  1.5505730863577141e+00  1.2617814682125803e+00  1.1543095796527787e+00  1.1251398485138022e+00  1.0970242855298120e+00  1.1051518058510643e+00  1.2957365627371076e+00  1.4197777724129601e+00  1.3322294636599052e+00  1.1956324113416503e+00  1.1582149217540532e+00  1.0472351348231863e+00  1.0333399923153690e+00  1.0000066906846645e+00  1.0000053337574877e+00  1.0107494430495771e+00  1.0376338591226599e+00  1.0409753241659261e+00  1.0513361483833275e+00  1.0025303593032815e+00  1.0000852397035989e+00  1.0000049533268311e+00  1.0000022024420430e+00  1.0000017990279362e+00  1.0000027818293866e+00  1.0000080431163274e+00  1.0000895187178074e+00  1.0007164480845854e+00  1.0000894664663471e+00  1.0000173913024257e+00  1.0000061533088418e+00  1.0000040411598843e+00  1.0000045478878732e+00  1.0000096391751803e+00  1.0000440625769198e+00  </DataArray> 
</PointData> 
</Piece>
</UnstructuredGrid>
</VTKFile>