<?xml version="1.0"?>
<VTKFile type="UnstructuredGrid"  version="0.1"  >
<UnstructuredGrid>
<Piece  NumberOfPoints="72" NumberOfCells="112">
<Points>
<DataArray  type="Float64"  NumberOfComponents="3"  format="ascii">0 0 0  1 0 0  2 0 0  3 0 0  4 0 0  5 0 0  6 0 0  7 0 0  0 1 0  1 1 0  2 1 0  3 1 0  4 1 0  5 1 0  6 1 0  7 1 0  0 2 0  1 2 0  2 2 0  3 2 0  4 2 0  5 2 0  6 2 0  7 2 0  0 3 0  1 3 0  2 3 0  3 3 0  4 3 0  5 3 0  6 3 0  7 3 0  0 4 0  1 4 0  2 4 0  3 4 0  4 4 0  5 4 0  6 4 0  7 4 0  0 5 0  1 5 0  2 5 0  3 5 0  4 5 0  5 5 0  6 5 0  7 5 0  0 6 0  1 6 0  2 6 0  3 6 0  4 6 0  5 6 0  6 6 0  7 6 0  0 7 0  1 7 0  2 7 0  3 7 0  4 7 0  5 7 0  6 7 0  7 7 0  0 8 0  1 8 0  2 8 0  3 8 0  4 8 0  5 8 0  6 8 0  7 8 0  </DataArray>
</Points>
<Cells>
<DataArray  type="UInt32"  Name="connectivity"  format="ascii">0 8 9  0 1 9  1 9 10  1 2 10  2 10 11  2 3 11  3 11 12  3 4 12  4 12 13  4 5 13  5 13 14  5 6 14  6 14 15  6 7 15  8 16 17  8 9 17  9 17 18  9 10 18  10 18 19  10 11 19  11 19 20  11 12 20  12 20 21  12 13 21  13 21 22  13 14 22  14 22 23  14 15 23  16 24 25  16 17 25  17 25 26  17 18 26  18 26 27  18 19 27  19 27 28  19 20 28  20 28 29  20 21 29  21 29 30  21 22 30  22 30 31  22 23 31  24 32 33  24 25 33  25 33 34  25 26 34  26 34 35  26 27 35  27 35 36  27 28 36  28 36 37  28 29 37  29 37 38  29 30 38  30 38 39  30 31 39  32 40 41  32 33 41  33 41 42  33 34 42  34 42 43  34 35 43  35 43 44  35 36 44  36 44 45  36 37 45  37 45 46  37 38 46  38 46 47  38 39 47  40 48 49  40 41 49  41 49 50  41 42 50  42 50 51  42 43 51  43 51 52  43 44 52  44 52 53  44 45 53  45 53 54  45 46 54  46 54 55  46 47 55  48 56 57  48 49 57  49 57 58  49 50 58  50 58 59  50 51 59  51 59 60  51 52 60  52 60 61  52 53 61  53 61 62  53 54 62  54 62 63  54 55 63  56 64 65  56 57 65  57 65 66  57 58 66  58 66 67  58 59 67  59 67 68  59 60 68  60 68 69  60 61 69  61 69 70  61 62 70  62 70 71  62 63 71  </DataArray>
<DataArray  type="UInt32"  Name="offsets"  format="ascii">3 6 9 12 15 18 21 24 27 30 33 36 39 42 45 48 51 54 57 60 63 66 69 72 75 78 81 84 87 90 93 96 99 102 105 108 111 114 117 120 123 126 129 132 135 138 141 144 147 150 153 156 159 162 165 168 171 174 177 180 183 186 189 192 195 198 201 204 207 210 213 216 219 222 225 228 231 234 237 240 243 246 249 252 255 258 261 264 267 270 273 276 279 282 285 288 291 294 297 300 303 306 309 312 315 318 321 324 327 330 333 336 </DataArray>
<DataArray  type="UInt8"  Name="types"  format="ascii">5 5 5 5 5 5 5 5 5 5 5 5 5 5 5 5 5 5 5 5 5 5 5 5 5 5 5 5 5 5 5 5 5 5 5 5 5 5 5 5 5 5 5 5 5 5 5 5 5 5 5 5 5 5 5 5 5 5 5 5 5 5 5 5 5 5 5 5 5 5 5 5 5 5 5 5 5 5 5 5 5 5 5 5 5 5 5 5 5 5 5 5 5 5 5 5 5 5 5 5 5 5 5 5 5 5 5 5 5 5 5 5 </DataArray>
</Cells>
<PointData  Scalars="ControlVisualization"> 
<DataArray  type="Float64"  Name="ControlVisualization"  format="ascii">6.6757970506216475e+00  7.2085853631872130e+00  7.5601446931930925e+00  7.5054966183092242e+00  7.7540797069894349e+00  7.8175743669976532e+00  7.5930538705581156e+00  7.3889561877424201e+00  6.3323517932091118e+00  6.8476058637235999e+00  7.0863708493769346e+00  7.4073734039065471e+00  7.1032646477399943e+00  7.3220297279035487e+00  7.2820519934977801e+00  7.0705937453452519e+00  5.9422157988363846e+00  6.2650774992319880e+00  6.8526386521738445e+00  6.7722977627467635e+00  6.9876904173095555e+00  6.8944401268821398e+00  6.4315767798179557e+00  6.3340248675105064e+00  5.4920956450564047e+00  5.5081812647794717e+00  6.4195008111954666e+00  6.5819885471757669e+00  6.6006300118486925e+00  6.2003489924146100e+00  5.7572334116604784e+00  5.4471518350470545e+00  4.8284746298413586e+00  5.2603566473430288e+00  5.0992766657834716e+00  5.5440733516674099e+00  5.5983257490718730e+00  5.3382469905191634e+00  4.9571543828502262e+00  4.7651469188062228e+00  4.3934702726076420e+00  4.2385449914387161e+00  4.2981602705141517e+00  4.4854404986577174e+00  4.5382100413675674e+00  4.3460149147610885e+00  4.1878860492770533e+00  4.0379071998504443e+00  3.8734846530677882e+00  3.7464133284304344e+00  3.6926669829938001e+00  3.6477412598848100e+00  3.6462473560160911e+00  3.5303716056032837e+00  3.4461655944415459e+00  3.3905213014002498e+00  3.5406668320532972e+00  3.5174334170864472e+00  3.2780499103491785e+00  3.1668107275797226e+00  3.0242094665878136e+00  2.9673060815570116e+00  3.0063582097601698e+00  3.0061841520069867e+00  3.5263160918042225e+00  3.3942376624159141e+00  3.2267199952190126e+00  2.9645415650732820e+00  2.7865737482568247e+00  2.7748501499734517e+00  2.8492078260044211e+00  2.9160592080054659e+00  </DataArray> 
</PointData> 
</Piece>
</UnstructuredGrid>
</VTKFile>