<?xml version="1.0"?>
<VTKFile type="UnstructuredGrid"  version="0.1"  >
<UnstructuredGrid>
<Piece  NumberOfPoints="72" NumberOfCells="112">
<Points>
<DataArray  type="Float64"  NumberOfComponents="3"  format="ascii">0 0 0  1 0 0  2 0 0  3 0 0  4 0 0  5 0 0  6 0 0  7 0 0  0 1 0  1 1 0  2 1 0  3 1 0  4 1 0  5 1 0  6 1 0  7 1 0  0 2 0  1 2 0  2 2 0  3 2 0  4 2 0  5 2 0  6 2 0  7 2 0  0 3 0  1 3 0  2 3 0  3 3 0  4 3 0  5 3 0  6 3 0  7 3 0  0 4 0  1 4 0  2 4 0  3 4 0  4 4 0  5 4 0  6 4 0  7 4 0  0 5 0  1 5 0  2 5 0  3 5 0  4 5 0  5 5 0  6 5 0  7 5 0  0 6 0  1 6 0  2 6 0  3 6 0  4 6 0  5 6 0  6 6 0  7 6 0  0 7 0  1 7 0  2 7 0  3 7 0  4 7 0  5 7 0  6 7 0  7 7 0  0 8 0  1 8 0  2 8 0  3 8 0  4 8 0  5 8 0  6 8 0  7 8 0  </DataArray>
</Points>
<Cells>
<DataArray  type="UInt32"  Name="connectivity"  format="ascii">0 8 9  0 1 9  1 9 10  1 2 10  2 10 11  2 3 11  3 11 12  3 4 12  4 12 13  4 5 13  5 13 14  5 6 14  6 14 15  6 7 15  8 16 17  8 9 17  9 17 18  9 10 18  10 18 19  10 11 19  11 19 20  11 12 20  12 20 21  12 13 21  13 21 22  13 14 22  14 22 23  14 15 23  16 24 25  16 17 25  17 25 26  17 18 26  18 26 27  18 19 27  19 27 28  19 20 28  20 28 29  20 21 29  21 29 30  21 22 30  22 30 31  22 23 31  24 32 33  24 25 33  25 33 34  25 26 34  26 34 35  26 27 35  27 35 36  27 28 36  28 36 37  28 29 37  29 37 38  29 30 38  30 38 39  30 31 39  32 40 41  32 33 41  33 41 42  33 34 42  34 42 43  34 35 43  35 43 44  35 36 44  36 44 45  36 37 45  37 45 46  37 38 46  38 46 47  38 39 47  40 48 49  40 41 49  41 49 50  41 42 50  42 50 51  42 43 51  43 51 52  43 44 52  44 52 53  44 45 53  45 53 54  45 46 54  46 54 55  46 47 55  48 56 57  48 49 57  49 57 58  49 50 58  50 58 59  50 51 59  51 59 60  51 52 60  52 60 61  52 53 61  53 61 62  53 54 62  54 62 63  54 55 63  56 64 65  56 57 65  57 65 66  57 58 66  58 66 67  58 59 67  59 67 68  59 60 68  60 68 69  60 61 69  61 69 70  61 62 70  62 70 71  62 63 71  </DataArray>
<DataArray  type="UInt32"  Name="offsets"  format="ascii">3 6 9 12 15 18 21 24 27 30 33 36 39 42 45 48 51 54 57 60 63 66 69 72 75 78 81 84 87 90 93 96 99 102 105 108 111 114 117 120 123 126 129 132 135 138 141 144 147 150 153 156 159 162 165 168 171 174 177 180 183 186 189 192 195 198 201 204 207 210 213 216 219 222 225 228 231 234 237 240 243 246 249 252 255 258 261 264 267 270 273 276 279 282 285 288 291 294 297 300 303 306 309 312 315 318 321 324 327 330 333 336 </DataArray>
<DataArray  type="UInt8"  Name="types"  format="ascii">5 5 5 5 5 5 5 5 5 5 5 5 5 5 5 5 5 5 5 5 5 5 5 5 5 5 5 5 5 5 5 5 5 5 5 5 5 5 5 5 5 5 5 5 5 5 5 5 5 5 5 5 5 5 5 5 5 5 5 5 5 5 5 5 5 5 5 5 5 5 5 5 5 5 5 5 5 5 5 5 5 5 5 5 5 5 5 5 5 5 5 5 5 5 5 5 5 5 5 5 5 5 5 5 5 5 5 5 5 5 5 5 </DataArray>
</Cells>
<PointData  Scalars="ControlVisualization"> 
<DataArray  type="Float64"  Name="ControlVisualization"  format="ascii">1.0458866681636616e+00  1.1162757900277496e+00  1.0779280376220841e+00  1.0002939567486893e+00  1.1127156987991571e+00  1.2773587873542898e+00  1.2612243281273536e+00  1.2163119379021841e+00  1.0213830425431818e+00  1.1205023938507395e+00  1.1972708013278250e+00  1.1414292602835912e+00  1.1651278963313614e+00  1.2559915014737448e+00  1.2197760781352536e+00  1.1708674568502937e+00  1.0253393283850567e+00  1.1354724300857792e+00  1.4167089561119106e+00  1.5197816371001858e+00  1.4475501465711025e+00  1.3060591915232762e+00  1.1421884259863442e+00  1.0582929504337084e+00  1.1025066874728633e+00  1.1462057805961252e+00  1.5091364642843350e+00  1.8462246255456825e+00  1.8035610429230353e+00  1.4829687578316679e+00  1.1761723314862682e+00  1.0541838170199815e+00  1.1625302267673259e+00  1.1472069407823535e+00  1.3491966151776351e+00  1.7341674150904678e+00  1.8167836151303201e+00  1.5512183477804768e+00  1.2621515767663620e+00  1.1545451823716559e+00  1.1248236927930384e+00  1.0984148880422222e+00  1.1058034354868331e+00  1.2970276534102836e+00  1.4212386889688877e+00  1.3332460328238651e+00  1.1977131864646153e+00  1.1594441525221670e+00  1.0486223166896456e+00  1.0336787586468326e+00  1.0000452077723301e+00  1.0000340259110370e+00  1.0116606469709415e+00  1.0388910826937132e+00  1.0424931350872120e+00  1.0536186691640026e+00  1.0055130279252553e+00  1.0004824177613278e+00  1.0000309900131765e+00  1.0000137665927202e+00  1.0000113432724447e+00  1.0000174408179165e+00  1.0000510340869020e+00  1.0004146920898356e+00  1.0042686865059514e+00  1.0005176380394560e+00  1.0001027104287601e+00  1.0000379640191026e+00  1.0000251985199518e+00  1.0000282681244763e+00  1.0000583926111983e+00  1.0002327221500602e+00  </DataArray> 
</PointData> 
</Piece>
</UnstructuredGrid>
</VTKFile>