<?xml version="1.0"?>
<VTKFile type="UnstructuredGrid"  version="0.1"  >
<UnstructuredGrid>
<Piece  NumberOfPoints="72" NumberOfCells="112">
<Points>
<DataArray  type="Float64"  NumberOfComponents="3"  format="ascii">0 0 0  1 0 0  2 0 0  3 0 0  4 0 0  5 0 0  6 0 0  7 0 0  0 1 0  1 1 0  2 1 0  3 1 0  4 1 0  5 1 0  6 1 0  7 1 0  0 2 0  1 2 0  2 2 0  3 2 0  4 2 0  5 2 0  6 2 0  7 2 0  0 3 0  1 3 0  2 3 0  3 3 0  4 3 0  5 3 0  6 3 0  7 3 0  0 4 0  1 4 0  2 4 0  3 4 0  4 4 0  5 4 0  6 4 0  7 4 0  0 5 0  1 5 0  2 5 0  3 5 0  4 5 0  5 5 0  6 5 0  7 5 0  0 6 0  1 6 0  2 6 0  3 6 0  4 6 0  5 6 0  6 6 0  7 6 0  0 7 0  1 7 0  2 7 0  3 7 0  4 7 0  5 7 0  6 7 0  7 7 0  0 8 0  1 8 0  2 8 0  3 8 0  4 8 0  5 8 0  6 8 0  7 8 0  </DataArray>
</Points>
<Cells>
<DataArray  type="UInt32"  Name="connectivity"  format="ascii">0 8 9  0 1 9  1 9 10  1 2 10  2 10 11  2 3 11  3 11 12  3 4 12  4 12 13  4 5 13  5 13 14  5 6 14  6 14 15  6 7 15  8 16 17  8 9 17  9 17 18  9 10 18  10 18 19  10 11 19  11 19 20  11 12 20  12 20 21  12 13 21  13 21 22  13 14 22  14 22 23  14 15 23  16 24 25  16 17 25  17 25 26  17 18 26  18 26 27  18 19 27  19 27 28  19 20 28  20 28 29  20 21 29  21 29 30  21 22 30  22 30 31  22 23 31  24 32 33  24 25 33  25 33 34  25 26 34  26 34 35  26 27 35  27 35 36  27 28 36  28 36 37  28 29 37  29 37 38  29 30 38  30 38 39  30 31 39  32 40 41  32 33 41  33 41 42  33 34 42  34 42 43  34 35 43  35 43 44  35 36 44  36 44 45  36 37 45  37 45 46  37 38 46  38 46 47  38 39 47  40 48 49  40 41 49  41 49 50  41 42 50  42 50 51  42 43 51  43 51 52  43 44 52  44 52 53  44 45 53  45 53 54  45 46 54  46 54 55  46 47 55  48 56 57  48 49 57  49 57 58  49 50 58  50 58 59  50 51 59  51 59 60  51 52 60  52 60 61  52 53 61  53 61 62  53 54 62  54 62 63  54 55 63  56 64 65  56 57 65  57 65 66  57 58 66  58 66 67  58 59 67  59 67 68  59 60 68  60 68 69  60 61 69  61 69 70  61 62 70  62 70 71  62 63 71  </DataArray>
<DataArray  type="UInt32"  Name="offsets"  format="ascii">3 6 9 12 15 18 21 24 27 30 33 36 39 42 45 48 51 54 57 60 63 66 69 72 75 78 81 84 87 90 93 96 99 102 105 108 111 114 117 120 123 126 129 132 135 138 141 144 147 150 153 156 159 162 165 168 171 174 177 180 183 186 189 192 195 198 201 204 207 210 213 216 219 222 225 228 231 234 237 240 243 246 249 252 255 258 261 264 267 270 273 276 279 282 285 288 291 294 297 300 303 306 309 312 315 318 321 324 327 330 333 336 </DataArray>
<DataArray  type="UInt8"  Name="types"  format="ascii">5 5 5 5 5 5 5 5 5 5 5 5 5 5 5 5 5 5 5 5 5 5 5 5 5 5 5 5 5 5 5 5 5 5 5 5 5 5 5 5 5 5 5 5 5 5 5 5 5 5 5 5 5 5 5 5 5 5 5 5 5 5 5 5 5 5 5 5 5 5 5 5 5 5 5 5 5 5 5 5 5 5 5 5 5 5 5 5 5 5 5 5 5 5 5 5 5 5 5 5 5 5 5 5 5 5 5 5 5 5 5 5 </DataArray>
</Cells>
<PointData  Scalars="ControlVisualization"> 
<DataArray  type="Float64"  Name="ControlVisualization"  format="ascii">2.6687132771838962e+00  2.9144983934115909e+00  2.8097035167281370e+00  2.8122352066044849e+00  2.8648006854451054e+00  3.1564522749604675e+00  3.4178364717058090e+00  3.3394861593109626e+00  2.4285603414968056e+00  2.6169875736817110e+00  2.7295559947237047e+00  2.2746253149260474e+00  2.0756338217798960e+00  3.1246802708227190e+00  2.9055876336042590e+00  3.1429123129750809e+00  2.4120534398905313e+00  2.1612211734718914e+00  3.0859941818061261e+00  2.8756663630489330e+00  3.4830084454607793e+00  2.6572529620881165e+00  3.2023380792637970e+00  2.3966192542970459e+00  2.0330439440875212e+00  2.8558302353689839e+00  2.2152333866210649e+00  3.3799225279958511e+00  2.9447393007594398e+00  2.8642822948417335e+00  1.8889782653547367e+00  2.5147277753936015e+00  2.0152805193124230e+00  2.1783784059471323e+00  2.4253991868577702e+00  2.2215809620577360e+00  3.0563275845429794e+00  2.1849793344240833e+00  2.8706572681490896e+00  1.8725302247020521e+00  1.6738955802235382e+00  2.1730103442436413e+00  1.7020187245142311e+00  2.9327035950578466e+00  2.5988092334274233e+00  2.4982399350982925e+00  2.2349503588270858e+00  1.6529650674801502e+00  1.6797281123512826e+00  1.6633384404900755e+00  1.5354107643474988e+00  1.6026764035442065e+00  1.5542285296144982e+00  1.3904083759997832e+00  1.8380382744016119e+00  1.6386770448366919e+00  1.5894871950311218e+00  1.5462781959382388e+00  1.6405305062267914e+00  1.1010827198362745e+00  1.0000012283750892e+00  1.7713673218162866e+00  1.3440879278237166e+00  1.5732099992085946e+00  1.4338898156756588e+00  1.5160775656349972e+00  1.6531594509683920e+00  1.9138066954258242e+00  1.8893490722628443e+00  1.4510495160662422e+00  1.4538644080870382e+00  1.4908872177825634e+00  </DataArray> 
</PointData> 
</Piece>
</UnstructuredGrid>
</VTKFile>