<?xml version="1.0"?>
<VTKFile type="UnstructuredGrid"  version="0.1"  >
<UnstructuredGrid>
<Piece  NumberOfPoints="72" NumberOfCells="112">
<Points>
<DataArray  type="Float64"  NumberOfComponents="3"  format="ascii">0 0 0  1 0 0  2 0 0  3 0 0  4 0 0  5 0 0  6 0 0  7 0 0  0 1 0  1 1 0  2 1 0  3 1 0  4 1 0  5 1 0  6 1 0  7 1 0  0 2 0  1 2 0  2 2 0  3 2 0  4 2 0  5 2 0  6 2 0  7 2 0  0 3 0  1 3 0  2 3 0  3 3 0  4 3 0  5 3 0  6 3 0  7 3 0  0 4 0  1 4 0  2 4 0  3 4 0  4 4 0  5 4 0  6 4 0  7 4 0  0 5 0  1 5 0  2 5 0  3 5 0  4 5 0  5 5 0  6 5 0  7 5 0  0 6 0  1 6 0  2 6 0  3 6 0  4 6 0  5 6 0  6 6 0  7 6 0  0 7 0  1 7 0  2 7 0  3 7 0  4 7 0  5 7 0  6 7 0  7 7 0  0 8 0  1 8 0  2 8 0  3 8 0  4 8 0  5 8 0  6 8 0  7 8 0  </DataArray>
</Points>
<Cells>
<DataArray  type="UInt32"  Name="connectivity"  format="ascii">0 8 9  0 1 9  1 9 10  1 2 10  2 10 11  2 3 11  3 11 12  3 4 12  4 12 13  4 5 13  5 13 14  5 6 14  6 14 15  6 7 15  8 16 17  8 9 17  9 17 18  9 10 18  10 18 19  10 11 19  11 19 20  11 12 20  12 20 21  12 13 21  13 21 22  13 14 22  14 22 23  14 15 23  16 24 25  16 17 25  17 25 26  17 18 26  18 26 27  18 19 27  19 27 28  19 20 28  20 28 29  20 21 29  21 29 30  21 22 30  22 30 31  22 23 31  24 32 33  24 25 33  25 33 34  25 26 34  26 34 35  26 27 35  27 35 36  27 28 36  28 36 37  28 29 37  29 37 38  29 30 38  30 38 39  30 31 39  32 40 41  32 33 41  33 41 42  33 34 42  34 42 43  34 35 43  35 43 44  35 36 44  36 44 45  36 37 45  37 45 46  37 38 46  38 46 47  38 39 47  40 48 49  40 41 49  41 49 50  41 42 50  42 50 51  42 43 51  43 51 52  43 44 52  44 52 53  44 45 53  45 53 54  45 46 54  46 54 55  46 47 55  48 56 57  48 49 57  49 57 58  49 50 58  50 58 59  50 51 59  51 59 60  51 52 60  52 60 61  52 53 61  53 61 62  53 54 62  54 62 63  54 55 63  56 64 65  56 57 65  57 65 66  57 58 66  58 66 67  58 59 67  59 67 68  59 60 68  60 68 69  60 61 69  61 69 70  61 62 70  62 70 71  62 63 71  </DataArray>
<DataArray  type="UInt32"  Name="offsets"  format="ascii">3 6 9 12 15 18 21 24 27 30 33 36 39 42 45 48 51 54 57 60 63 66 69 72 75 78 81 84 87 90 93 96 99 102 105 108 111 114 117 120 123 126 129 132 135 138 141 144 147 150 153 156 159 162 165 168 171 174 177 180 183 186 189 192 195 198 201 204 207 210 213 216 219 222 225 228 231 234 237 240 243 246 249 252 255 258 261 264 267 270 273 276 279 282 285 288 291 294 297 300 303 306 309 312 315 318 321 324 327 330 333 336 </DataArray>
<DataArray  type="UInt8"  Name="types"  format="ascii">5 5 5 5 5 5 5 5 5 5 5 5 5 5 5 5 5 5 5 5 5 5 5 5 5 5 5 5 5 5 5 5 5 5 5 5 5 5 5 5 5 5 5 5 5 5 5 5 5 5 5 5 5 5 5 5 5 5 5 5 5 5 5 5 5 5 5 5 5 5 5 5 5 5 5 5 5 5 5 5 5 5 5 5 5 5 5 5 5 5 5 5 5 5 5 5 5 5 5 5 5 5 5 5 5 5 5 5 5 5 5 5 </DataArray>
</Cells>
<PointData  Scalars="ControlVisualization"> 
<DataArray  type="Float64"  Name="ControlVisualization"  format="ascii">1.0285125475819816e+00  1.1100270959245291e+00  1.0672337068692128e+00  1.0313045640610432e+00  1.1542839085830243e+00  1.2972607240501128e+00  1.2902291350385215e+00  1.3140830215813748e+00  1.0767895830768939e+00  1.1233138672554033e+00  1.1889149000581434e+00  1.1574954098373331e+00  1.2262989931839692e+00  1.2824421315199859e+00  1.2294128389458536e+00  1.2147106850087590e+00  1.0282438179335729e+00  1.1429638544774650e+00  1.4029719875206701e+00  1.5309543698751975e+00  1.4625221896963083e+00  1.3538697490601037e+00  1.1918506324693989e+00  1.0745946525958141e+00  1.0678607399267939e+00  1.1585139167836511e+00  1.4864418934656103e+00  1.8838549426840823e+00  1.8343050256100952e+00  1.5128445816200906e+00  1.1874672751605582e+00  1.0798938087018228e+00  1.1570119925496252e+00  1.1203160191622108e+00  1.3798261533384661e+00  1.7165242608947278e+00  1.8448718099230224e+00  1.5543254928808155e+00  1.2804585510587201e+00  1.1869099055101306e+00  1.1269483152409698e+00  1.1151693919703189e+00  1.1251981232742554e+00  1.3181313858529191e+00  1.4768918427348250e+00  1.3598675328368628e+00  1.2792135652479006e+00  1.1984711103641452e+00  1.0620574012103714e+00  1.0555607984931625e+00  1.0034462488611062e+00  1.0049483333397926e+00  1.0303861738195703e+00  1.0396559507680017e+00  1.0842107715525937e+00  1.1040640179879577e+00  1.0444456867248506e+00  1.0027358748299346e+00  1.0046472590023097e+00  1.0014125236070435e+00  1.0012580321338893e+00  1.0023989309852925e+00  1.0107411519155742e+00  1.0258037575648886e+00  1.0510294532417199e+00  1.0264455312315000e+00  1.0129522731963900e+00  1.0044029195216422e+00  1.0010763225971615e+00  1.0059725679144162e+00  1.0043737192846713e+00  1.0000001438075887e+00  </DataArray> 
</PointData> 
</Piece>
</UnstructuredGrid>
</VTKFile>