<?xml version="1.0"?>
<VTKFile type="UnstructuredGrid"  version="0.1"  >
<UnstructuredGrid>
<Piece  NumberOfPoints="72" NumberOfCells="112">
<Points>
<DataArray  type="Float64"  NumberOfComponents="3"  format="ascii">0 0 0  1 0 0  2 0 0  3 0 0  4 0 0  5 0 0  6 0 0  7 0 0  0 1 0  1 1 0  2 1 0  3 1 0  4 1 0  5 1 0  6 1 0  7 1 0  0 2 0  1 2 0  2 2 0  3 2 0  4 2 0  5 2 0  6 2 0  7 2 0  0 3 0  1 3 0  2 3 0  3 3 0  4 3 0  5 3 0  6 3 0  7 3 0  0 4 0  1 4 0  2 4 0  3 4 0  4 4 0  5 4 0  6 4 0  7 4 0  0 5 0  1 5 0  2 5 0  3 5 0  4 5 0  5 5 0  6 5 0  7 5 0  0 6 0  1 6 0  2 6 0  3 6 0  4 6 0  5 6 0  6 6 0  7 6 0  0 7 0  1 7 0  2 7 0  3 7 0  4 7 0  5 7 0  6 7 0  7 7 0  0 8 0  1 8 0  2 8 0  3 8 0  4 8 0  5 8 0  6 8 0  7 8 0  </DataArray>
</Points>
<Cells>
<DataArray  type="UInt32"  Name="connectivity"  format="ascii">0 8 9  0 1 9  1 9 10  1 2 10  2 10 11  2 3 11  3 11 12  3 4 12  4 12 13  4 5 13  5 13 14  5 6 14  6 14 15  6 7 15  8 16 17  8 9 17  9 17 18  9 10 18  10 18 19  10 11 19  11 19 20  11 12 20  12 20 21  12 13 21  13 21 22  13 14 22  14 22 23  14 15 23  16 24 25  16 17 25  17 25 26  17 18 26  18 26 27  18 19 27  19 27 28  19 20 28  20 28 29  20 21 29  21 29 30  21 22 30  22 30 31  22 23 31  24 32 33  24 25 33  25 33 34  25 26 34  26 34 35  26 27 35  27 35 36  27 28 36  28 36 37  28 29 37  29 37 38  29 30 38  30 38 39  30 31 39  32 40 41  32 33 41  33 41 42  33 34 42  34 42 43  34 35 43  35 43 44  35 36 44  36 44 45  36 37 45  37 45 46  37 38 46  38 46 47  38 39 47  40 48 49  40 41 49  41 49 50  41 42 50  42 50 51  42 43 51  43 51 52  43 44 52  44 52 53  44 45 53  45 53 54  45 46 54  46 54 55  46 47 55  48 56 57  48 49 57  49 57 58  49 50 58  50 58 59  50 51 59  51 59 60  51 52 60  52 60 61  52 53 61  53 61 62  53 54 62  54 62 63  54 55 63  56 64 65  56 57 65  57 65 66  57 58 66  58 66 67  58 59 67  59 67 68  59 60 68  60 68 69  60 61 69  61 69 70  61 62 70  62 70 71  62 63 71  </DataArray>
<DataArray  type="UInt32"  Name="offsets"  format="ascii">3 6 9 12 15 18 21 24 27 30 33 36 39 42 45 48 51 54 57 60 63 66 69 72 75 78 81 84 87 90 93 96 99 102 105 108 111 114 117 120 123 126 129 132 135 138 141 144 147 150 153 156 159 162 165 168 171 174 177 180 183 186 189 192 195 198 201 204 207 210 213 216 219 222 225 228 231 234 237 240 243 246 249 252 255 258 261 264 267 270 273 276 279 282 285 288 291 294 297 300 303 306 309 312 315 318 321 324 327 330 333 336 </DataArray>
<DataArray  type="UInt8"  Name="types"  format="ascii">5 5 5 5 5 5 5 5 5 5 5 5 5 5 5 5 5 5 5 5 5 5 5 5 5 5 5 5 5 5 5 5 5 5 5 5 5 5 5 5 5 5 5 5 5 5 5 5 5 5 5 5 5 5 5 5 5 5 5 5 5 5 5 5 5 5 5 5 5 5 5 5 5 5 5 5 5 5 5 5 5 5 5 5 5 5 5 5 5 5 5 5 5 5 5 5 5 5 5 5 5 5 5 5 5 5 5 5 5 5 5 5 </DataArray>
</Cells>
<PointData  Scalars="ControlVisualization"> 
<DataArray  type="Float64"  Name="ControlVisualization"  format="ascii">1.0105880264453984e+00  1.1435248858726448e+00  1.1481113922700175e+00  1.0706704548303334e+00  1.2219683685081670e+00  1.5204313837315633e+00  1.5512662055268147e+00  1.4964095324035813e+00  1.0123510930133430e+00  1.1672307088217899e+00  1.2737714659524506e+00  1.2221478705038278e+00  1.2679815904700291e+00  1.4461758446518973e+00  1.4142690468745927e+00  1.3778373514137268e+00  1.0723019554154096e+00  1.2102239314893839e+00  1.4874636286125971e+00  1.5814142243377460e+00  1.5336495676331900e+00  1.4113604038759002e+00  1.2779140192567131e+00  1.1810993695908878e+00  1.1622137945830817e+00  1.2005084468676350e+00  1.5777385126653858e+00  1.8858281280004905e+00  1.8489948637636442e+00  1.5842290904158036e+00  1.2967960536864123e+00  1.1592273492351040e+00  1.1899543154091781e+00  1.1719071414808520e+00  1.3962155867339949e+00  1.7854777201390135e+00  1.8634392740876486e+00  1.6306889561566247e+00  1.3406511507037049e+00  1.2469768299984594e+00  1.1408397699338568e+00  1.1080689979533607e+00  1.1526844013107465e+00  1.3130758716504554e+00  1.4410879207414242e+00  1.3893235467751641e+00  1.2491711348340939e+00  1.2209632994517576e+00  1.0937204253226782e+00  1.0688661838557370e+00  1.0128543282733453e+00  1.0143082982662572e+00  1.0561343248054584e+00  1.0896257237251050e+00  1.1035931633733846e+00  1.1177958373396975e+00  1.0946139577220404e+00  1.0605137005840333e+00  1.0138439306538565e+00  1.0051638985026432e+00  1.0036644247396016e+00  1.0074322042322572e+00  1.0444395661871162e+00  1.0950163678929481e+00  1.1427897290449862e+00  1.1008214142233377e+00  1.0582720089348083e+00  1.0106249338187210e+00  1.0000000638480313e+00  1.0185159190518920e+00  1.0664276831101480e+00  1.1474409165142569e+00  </DataArray> 
</PointData> 
</Piece>
</UnstructuredGrid>
</VTKFile>