<?xml version="1.0"?>
<VTKFile type="UnstructuredGrid"  version="0.1"  >
<UnstructuredGrid>
<Piece  NumberOfPoints="72" NumberOfCells="112">
<Points>
<DataArray  type="Float64"  NumberOfComponents="3"  format="ascii">0 0 0  1 0 0  2 0 0  3 0 0  4 0 0  5 0 0  6 0 0  7 0 0  0 1 0  1 1 0  2 1 0  3 1 0  4 1 0  5 1 0  6 1 0  7 1 0  0 2 0  1 2 0  2 2 0  3 2 0  4 2 0  5 2 0  6 2 0  7 2 0  0 3 0  1 3 0  2 3 0  3 3 0  4 3 0  5 3 0  6 3 0  7 3 0  0 4 0  1 4 0  2 4 0  3 4 0  4 4 0  5 4 0  6 4 0  7 4 0  0 5 0  1 5 0  2 5 0  3 5 0  4 5 0  5 5 0  6 5 0  7 5 0  0 6 0  1 6 0  2 6 0  3 6 0  4 6 0  5 6 0  6 6 0  7 6 0  0 7 0  1 7 0  2 7 0  3 7 0  4 7 0  5 7 0  6 7 0  7 7 0  0 8 0  1 8 0  2 8 0  3 8 0  4 8 0  5 8 0  6 8 0  7 8 0  </DataArray>
</Points>
<Cells>
<DataArray  type="UInt32"  Name="connectivity"  format="ascii">0 8 9  0 1 9  1 9 10  1 2 10  2 10 11  2 3 11  3 11 12  3 4 12  4 12 13  4 5 13  5 13 14  5 6 14  6 14 15  6 7 15  8 16 17  8 9 17  9 17 18  9 10 18  10 18 19  10 11 19  11 19 20  11 12 20  12 20 21  12 13 21  13 21 22  13 14 22  14 22 23  14 15 23  16 24 25  16 17 25  17 25 26  17 18 26  18 26 27  18 19 27  19 27 28  19 20 28  20 28 29  20 21 29  21 29 30  21 22 30  22 30 31  22 23 31  24 32 33  24 25 33  25 33 34  25 26 34  26 34 35  26 27 35  27 35 36  27 28 36  28 36 37  28 29 37  29 37 38  29 30 38  30 38 39  30 31 39  32 40 41  32 33 41  33 41 42  33 34 42  34 42 43  34 35 43  35 43 44  35 36 44  36 44 45  36 37 45  37 45 46  37 38 46  38 46 47  38 39 47  40 48 49  40 41 49  41 49 50  41 42 50  42 50 51  42 43 51  43 51 52  43 44 52  44 52 53  44 45 53  45 53 54  45 46 54  46 54 55  46 47 55  48 56 57  48 49 57  49 57 58  49 50 58  50 58 59  50 51 59  51 59 60  51 52 60  52 60 61  52 53 61  53 61 62  53 54 62  54 62 63  54 55 63  56 64 65  56 57 65  57 65 66  57 58 66  58 66 67  58 59 67  59 67 68  59 60 68  60 68 69  60 61 69  61 69 70  61 62 70  62 70 71  62 63 71  </DataArray>
<DataArray  type="UInt32"  Name="offsets"  format="ascii">3 6 9 12 15 18 21 24 27 30 33 36 39 42 45 48 51 54 57 60 63 66 69 72 75 78 81 84 87 90 93 96 99 102 105 108 111 114 117 120 123 126 129 132 135 138 141 144 147 150 153 156 159 162 165 168 171 174 177 180 183 186 189 192 195 198 201 204 207 210 213 216 219 222 225 228 231 234 237 240 243 246 249 252 255 258 261 264 267 270 273 276 279 282 285 288 291 294 297 300 303 306 309 312 315 318 321 324 327 330 333 336 </DataArray>
<DataArray  type="UInt8"  Name="types"  format="ascii">5 5 5 5 5 5 5 5 5 5 5 5 5 5 5 5 5 5 5 5 5 5 5 5 5 5 5 5 5 5 5 5 5 5 5 5 5 5 5 5 5 5 5 5 5 5 5 5 5 5 5 5 5 5 5 5 5 5 5 5 5 5 5 5 5 5 5 5 5 5 5 5 5 5 5 5 5 5 5 5 5 5 5 5 5 5 5 5 5 5 5 5 5 5 5 5 5 5 5 5 5 5 5 5 5 5 5 5 5 5 5 5 </DataArray>
</Cells>
<PointData  Scalars="ControlVisualization"> 
<DataArray  type="Float64"  Name="ControlVisualization"  format="ascii">1.3521105493975027e+00  1.8925997570919986e+00  1.7076427953287443e+00  1.4574831151561543e+00  1.5225530905609932e+00  2.1478686129789160e+00  2.3575152382426139e+00  2.2874201743088687e+00  1.3875477337832973e+00  1.7106669335191382e+00  1.9313859278395147e+00  1.3656774546675474e+00  1.3815921001102569e+00  2.0074354944172126e+00  2.4399309242233147e+00  2.1855752913101232e+00  1.7326688613036410e+00  1.5801717066834096e+00  2.1379449511616100e+00  2.0754320709559266e+00  2.2530022940706647e+00  2.2238145011779862e+00  1.8885477486032893e+00  1.9570195137433672e+00  1.6819886345269430e+00  2.0341461847304059e+00  1.9472843338695511e+00  2.4963857087403043e+00  2.3706019534084852e+00  2.0655792811909235e+00  1.8394438931413819e+00  1.8720856314154499e+00  1.6281738623832422e+00  1.6721030480039185e+00  1.8242978453115815e+00  1.8020630075936710e+00  2.3805875077071166e+00  1.8202763966739048e+00  2.0185849650147198e+00  1.5625308493770482e+00  1.3009705601748733e+00  1.5380646605818784e+00  1.1175785069098008e+00  2.1179798782418287e+00  1.6801326804600674e+00  1.8116297026126795e+00  1.5224280629775984e+00  1.2770312761452678e+00  1.2148372131522343e+00  1.0574886183316143e+00  1.2817858683205654e+00  1.0000001113111205e+00  1.1236078003076551e+00  1.0922232528678080e+00  1.2132976418498207e+00  1.1354061761642984e+00  1.1311922145774980e+00  1.2142040114111916e+00  1.0343129637992334e+00  1.0003377338845896e+00  1.0059578767920698e+00  1.0000667963898984e+00  1.1021234661979709e+00  1.1395054702170893e+00  1.1345977853757356e+00  1.1333706042313323e+00  1.2650239242539920e+00  1.3876792622030591e+00  1.2827225748806417e+00  1.1555797946804267e+00  1.1156905878069447e+00  1.2239969742977990e+00  </DataArray> 
</PointData> 
</Piece>
</UnstructuredGrid>
</VTKFile>