<?xml version="1.0"?>
<VTKFile type="UnstructuredGrid"  version="0.1"  >
<UnstructuredGrid>
<Piece  NumberOfPoints="72" NumberOfCells="112">
<Points>
<DataArray  type="Float64"  NumberOfComponents="3"  format="ascii">0 0 0  1 0 0  2 0 0  3 0 0  4 0 0  5 0 0  6 0 0  7 0 0  0 1 0  1 1 0  2 1 0  3 1 0  4 1 0  5 1 0  6 1 0  7 1 0  0 2 0  1 2 0  2 2 0  3 2 0  4 2 0  5 2 0  6 2 0  7 2 0  0 3 0  1 3 0  2 3 0  3 3 0  4 3 0  5 3 0  6 3 0  7 3 0  0 4 0  1 4 0  2 4 0  3 4 0  4 4 0  5 4 0  6 4 0  7 4 0  0 5 0  1 5 0  2 5 0  3 5 0  4 5 0  5 5 0  6 5 0  7 5 0  0 6 0  1 6 0  2 6 0  3 6 0  4 6 0  5 6 0  6 6 0  7 6 0  0 7 0  1 7 0  2 7 0  3 7 0  4 7 0  5 7 0  6 7 0  7 7 0  0 8 0  1 8 0  2 8 0  3 8 0  4 8 0  5 8 0  6 8 0  7 8 0  </DataArray>
</Points>
<Cells>
<DataArray  type="UInt32"  Name="connectivity"  format="ascii">0 8 9  0 1 9  1 9 10  1 2 10  2 10 11  2 3 11  3 11 12  3 4 12  4 12 13  4 5 13  5 13 14  5 6 14  6 14 15  6 7 15  8 16 17  8 9 17  9 17 18  9 10 18  10 18 19  10 11 19  11 19 20  11 12 20  12 20 21  12 13 21  13 21 22  13 14 22  14 22 23  14 15 23  16 24 25  16 17 25  17 25 26  17 18 26  18 26 27  18 19 27  19 27 28  19 20 28  20 28 29  20 21 29  21 29 30  21 22 30  22 30 31  22 23 31  24 32 33  24 25 33  25 33 34  25 26 34  26 34 35  26 27 35  27 35 36  27 28 36  28 36 37  28 29 37  29 37 38  29 30 38  30 38 39  30 31 39  32 40 41  32 33 41  33 41 42  33 34 42  34 42 43  34 35 43  35 43 44  35 36 44  36 44 45  36 37 45  37 45 46  37 38 46  38 46 47  38 39 47  40 48 49  40 41 49  41 49 50  41 42 50  42 50 51  42 43 51  43 51 52  43 44 52  44 52 53  44 45 53  45 53 54  45 46 54  46 54 55  46 47 55  48 56 57  48 49 57  49 57 58  49 50 58  50 58 59  50 51 59  51 59 60  51 52 60  52 60 61  52 53 61  53 61 62  53 54 62  54 62 63  54 55 63  56 64 65  56 57 65  57 65 66  57 58 66  58 66 67  58 59 67  59 67 68  59 60 68  60 68 69  60 61 69  61 69 70  61 62 70  62 70 71  62 63 71  </DataArray>
<DataArray  type="UInt32"  Name="offsets"  format="ascii">3 6 9 12 15 18 21 24 27 30 33 36 39 42 45 48 51 54 57 60 63 66 69 72 75 78 81 84 87 90 93 96 99 102 105 108 111 114 117 120 123 126 129 132 135 138 141 144 147 150 153 156 159 162 165 168 171 174 177 180 183 186 189 192 195 198 201 204 207 210 213 216 219 222 225 228 231 234 237 240 243 246 249 252 255 258 261 264 267 270 273 276 279 282 285 288 291 294 297 300 303 306 309 312 315 318 321 324 327 330 333 336 </DataArray>
<DataArray  type="UInt8"  Name="types"  format="ascii">5 5 5 5 5 5 5 5 5 5 5 5 5 5 5 5 5 5 5 5 5 5 5 5 5 5 5 5 5 5 5 5 5 5 5 5 5 5 5 5 5 5 5 5 5 5 5 5 5 5 5 5 5 5 5 5 5 5 5 5 5 5 5 5 5 5 5 5 5 5 5 5 5 5 5 5 5 5 5 5 5 5 5 5 5 5 5 5 5 5 5 5 5 5 5 5 5 5 5 5 5 5 5 5 5 5 5 5 5 5 5 5 </DataArray>
</Cells>
<PointData  Scalars="ControlVisualization"> 
<DataArray  type="Float64"  Name="ControlVisualization"  format="ascii">3.8607172992410241e+00  4.0104104342291036e+00  3.9329190282841235e+00  4.0528359039622197e+00  4.1919201746851931e+00  4.3731129781499929e+00  4.4365424799901847e+00  4.4294705104740224e+00  3.3385842002731030e+00  3.5652858019823430e+00  3.9198390345928864e+00  3.5661960346099795e+00  3.5449050764813346e+00  4.0801278004447905e+00  4.0064417776906787e+00  3.9834451708345626e+00  3.0838568739072598e+00  2.9492010670882349e+00  3.7893660005133420e+00  3.7876687571100667e+00  4.0439160565918444e+00  3.6750928244849548e+00  3.6969183573144790e+00  3.1746667613388437e+00  2.6331467279636001e+00  3.2305939934727856e+00  3.1677998821508688e+00  4.0019823341104397e+00  3.7897119474624610e+00  3.5821882316182885e+00  2.6364338931858273e+00  2.9157796852663154e+00  2.5001912308981975e+00  2.7074149503082148e+00  3.1170283443110138e+00  2.9258654875748871e+00  3.5835607863103358e+00  2.8888432807659199e+00  3.2509897264170946e+00  2.3887103171821296e+00  2.2687599709089046e+00  2.6391065045368514e+00  2.1670802107955751e+00  3.1835420915224222e+00  2.9381307204593412e+00  2.8351808541020551e+00  2.5577810906410670e+00  2.2796155899871064e+00  2.2017312421026882e+00  2.0820414233264826e+00  2.0994707149444776e+00  2.1770546561476820e+00  1.9931195613513779e+00  2.0741985791748374e+00  2.1956039412638835e+00  2.1094446895032211e+00  1.9829038183737158e+00  1.9681299980069134e+00  2.0922620936799374e+00  1.5342812951080074e+00  1.7569274464627789e+00  1.9602214223671930e+00  1.7831907322424863e+00  1.8727952169890336e+00  1.8071815748738966e+00  1.8920578701121182e+00  1.9188809447956889e+00  2.0755953622252581e+00  1.9345101048925386e+00  1.7446641986580143e+00  1.7294371366332295e+00  1.6774223634979122e+00  </DataArray> 
</PointData> 
</Piece>
</UnstructuredGrid>
</VTKFile>