<?xml version="1.0"?>
<VTKFile type="UnstructuredGrid"  version="0.1"  >
<UnstructuredGrid>
<Piece  NumberOfPoints="72" NumberOfCells="112">
<Points>
<DataArray  type="Float64"  NumberOfComponents="3"  format="ascii">0 0 0  1 0 0  2 0 0  3 0 0  4 0 0  5 0 0  6 0 0  7 0 0  0 1 0  1 1 0  2 1 0  3 1 0  4 1 0  5 1 0  6 1 0  7 1 0  0 2 0  1 2 0  2 2 0  3 2 0  4 2 0  5 2 0  6 2 0  7 2 0  0 3 0  1 3 0  2 3 0  3 3 0  4 3 0  5 3 0  6 3 0  7 3 0  0 4 0  1 4 0  2 4 0  3 4 0  4 4 0  5 4 0  6 4 0  7 4 0  0 5 0  1 5 0  2 5 0  3 5 0  4 5 0  5 5 0  6 5 0  7 5 0  0 6 0  1 6 0  2 6 0  3 6 0  4 6 0  5 6 0  6 6 0  7 6 0  0 7 0  1 7 0  2 7 0  3 7 0  4 7 0  5 7 0  6 7 0  7 7 0  0 8 0  1 8 0  2 8 0  3 8 0  4 8 0  5 8 0  6 8 0  7 8 0  </DataArray>
</Points>
<Cells>
<DataArray  type="UInt32"  Name="connectivity"  format="ascii">0 8 9  0 1 9  1 9 10  1 2 10  2 10 11  2 3 11  3 11 12  3 4 12  4 12 13  4 5 13  5 13 14  5 6 14  6 14 15  6 7 15  8 16 17  8 9 17  9 17 18  9 10 18  10 18 19  10 11 19  11 19 20  11 12 20  12 20 21  12 13 21  13 21 22  13 14 22  14 22 23  14 15 23  16 24 25  16 17 25  17 25 26  17 18 26  18 26 27  18 19 27  19 27 28  19 20 28  20 28 29  20 21 29  21 29 30  21 22 30  22 30 31  22 23 31  24 32 33  24 25 33  25 33 34  25 26 34  26 34 35  26 27 35  27 35 36  27 28 36  28 36 37  28 29 37  29 37 38  29 30 38  30 38 39  30 31 39  32 40 41  32 33 41  33 41 42  33 34 42  34 42 43  34 35 43  35 43 44  35 36 44  36 44 45  36 37 45  37 45 46  37 38 46  38 46 47  38 39 47  40 48 49  40 41 49  41 49 50  41 42 50  42 50 51  42 43 51  43 51 52  43 44 52  44 52 53  44 45 53  45 53 54  45 46 54  46 54 55  46 47 55  48 56 57  48 49 57  49 57 58  49 50 58  50 58 59  50 51 59  51 59 60  51 52 60  52 60 61  52 53 61  53 61 62  53 54 62  54 62 63  54 55 63  56 64 65  56 57 65  57 65 66  57 58 66  58 66 67  58 59 67  59 67 68  59 60 68  60 68 69  60 61 69  61 69 70  61 62 70  62 70 71  62 63 71  </DataArray>
<DataArray  type="UInt32"  Name="offsets"  format="ascii">3 6 9 12 15 18 21 24 27 30 33 36 39 42 45 48 51 54 57 60 63 66 69 72 75 78 81 84 87 90 93 96 99 102 105 108 111 114 117 120 123 126 129 132 135 138 141 144 147 150 153 156 159 162 165 168 171 174 177 180 183 186 189 192 195 198 201 204 207 210 213 216 219 222 225 228 231 234 237 240 243 246 249 252 255 258 261 264 267 270 273 276 279 282 285 288 291 294 297 300 303 306 309 312 315 318 321 324 327 330 333 336 </DataArray>
<DataArray  type="UInt8"  Name="types"  format="ascii">5 5 5 5 5 5 5 5 5 5 5 5 5 5 5 5 5 5 5 5 5 5 5 5 5 5 5 5 5 5 5 5 5 5 5 5 5 5 5 5 5 5 5 5 5 5 5 5 5 5 5 5 5 5 5 5 5 5 5 5 5 5 5 5 5 5 5 5 5 5 5 5 5 5 5 5 5 5 5 5 5 5 5 5 5 5 5 5 5 5 5 5 5 5 5 5 5 5 5 5 5 5 5 5 5 5 5 5 5 5 5 5 </DataArray>
</Cells>
<PointData  Scalars="ControlVisualization"> 
<DataArray  type="Float64"  Name="ControlVisualization"  format="ascii">1.0460833226822079e+00  1.1164277220687722e+00  1.0780106029691181e+00  1.0002915308662299e+00  1.1130704013570398e+00  1.2780544956837145e+00  1.2615745792202435e+00  1.2159015235183188e+00  1.0213929490300808e+00  1.1205758516996271e+00  1.1972747131576491e+00  1.1415492926532229e+00  1.1656874147043896e+00  1.2563746563918095e+00  1.2201344407898975e+00  1.1709659998028004e+00  1.0252928186046579e+00  1.1354416721793346e+00  1.4168821395725728e+00  1.5199790406805975e+00  1.4478088930900035e+00  1.3066606659333255e+00  1.1426033257783856e+00  1.0585504091173095e+00  1.1024981114731989e+00  1.1462711045901426e+00  1.5089216168549835e+00  1.8463145871899507e+00  1.8037210165818918e+00  1.4832421793417647e+00  1.1766061932370373e+00  1.0545230978712317e+00  1.1625731702896549e+00  1.1470495095469695e+00  1.3492847231347360e+00  1.7342432758438673e+00  1.8169007781777959e+00  1.5516098029717140e+00  1.2624180511883201e+00  1.1548797313223318e+00  1.1247708109980721e+00  1.0982807244737014e+00  1.1058288695124847e+00  1.2969772656346146e+00  1.4213342326364060e+00  1.3333348789105846e+00  1.1979358333319410e+00  1.1597306082319274e+00  1.0483910629341617e+00  1.0337037016709860e+00  1.0000452046323911e+00  1.0000341188767357e+00  1.0116586055003902e+00  1.0391051165111167e+00  1.0425530613721870e+00  1.0537831504439412e+00  1.0052762764571639e+00  1.0004591556495968e+00  1.0000310155300169e+00  1.0000137777819134e+00  1.0000113551714607e+00  1.0000174679455773e+00  1.0000512525253897e+00  1.0004203338141495e+00  1.0038976217986610e+00  1.0005041176439842e+00  1.0001027921001759e+00  1.0000379934343853e+00  1.0000252200473536e+00  1.0000282997833889e+00  1.0000584870938285e+00  1.0002332354583727e+00  </DataArray> 
</PointData> 
</Piece>
</UnstructuredGrid>
</VTKFile>