<?xml version="1.0"?>
<VTKFile type="UnstructuredGrid"  version="0.1"  >
<UnstructuredGrid>
<Piece  NumberOfPoints="72" NumberOfCells="112">
<Points>
<DataArray  type="Float64"  NumberOfComponents="3"  format="ascii">0 0 0  1 0 0  2 0 0  3 0 0  4 0 0  5 0 0  6 0 0  7 0 0  0 1 0  1 1 0  2 1 0  3 1 0  4 1 0  5 1 0  6 1 0  7 1 0  0 2 0  1 2 0  2 2 0  3 2 0  4 2 0  5 2 0  6 2 0  7 2 0  0 3 0  1 3 0  2 3 0  3 3 0  4 3 0  5 3 0  6 3 0  7 3 0  0 4 0  1 4 0  2 4 0  3 4 0  4 4 0  5 4 0  6 4 0  7 4 0  0 5 0  1 5 0  2 5 0  3 5 0  4 5 0  5 5 0  6 5 0  7 5 0  0 6 0  1 6 0  2 6 0  3 6 0  4 6 0  5 6 0  6 6 0  7 6 0  0 7 0  1 7 0  2 7 0  3 7 0  4 7 0  5 7 0  6 7 0  7 7 0  0 8 0  1 8 0  2 8 0  3 8 0  4 8 0  5 8 0  6 8 0  7 8 0  </DataArray>
</Points>
<Cells>
<DataArray  type="UInt32"  Name="connectivity"  format="ascii">0 8 9  0 1 9  1 9 10  1 2 10  2 10 11  2 3 11  3 11 12  3 4 12  4 12 13  4 5 13  5 13 14  5 6 14  6 14 15  6 7 15  8 16 17  8 9 17  9 17 18  9 10 18  10 18 19  10 11 19  11 19 20  11 12 20  12 20 21  12 13 21  13 21 22  13 14 22  14 22 23  14 15 23  16 24 25  16 17 25  17 25 26  17 18 26  18 26 27  18 19 27  19 27 28  19 20 28  20 28 29  20 21 29  21 29 30  21 22 30  22 30 31  22 23 31  24 32 33  24 25 33  25 33 34  25 26 34  26 34 35  26 27 35  27 35 36  27 28 36  28 36 37  28 29 37  29 37 38  29 30 38  30 38 39  30 31 39  32 40 41  32 33 41  33 41 42  33 34 42  34 42 43  34 35 43  35 43 44  35 36 44  36 44 45  36 37 45  37 45 46  37 38 46  38 46 47  38 39 47  40 48 49  40 41 49  41 49 50  41 42 50  42 50 51  42 43 51  43 51 52  43 44 52  44 52 53  44 45 53  45 53 54  45 46 54  46 54 55  46 47 55  48 56 57  48 49 57  49 57 58  49 50 58  50 58 59  50 51 59  51 59 60  51 52 60  52 60 61  52 53 61  53 61 62  53 54 62  54 62 63  54 55 63  56 64 65  56 57 65  57 65 66  57 58 66  58 66 67  58 59 67  59 67 68  59 60 68  60 68 69  60 61 69  61 69 70  61 62 70  62 70 71  62 63 71  </DataArray>
<DataArray  type="UInt32"  Name="offsets"  format="ascii">3 6 9 12 15 18 21 24 27 30 33 36 39 42 45 48 51 54 57 60 63 66 69 72 75 78 81 84 87 90 93 96 99 102 105 108 111 114 117 120 123 126 129 132 135 138 141 144 147 150 153 156 159 162 165 168 171 174 177 180 183 186 189 192 195 198 201 204 207 210 213 216 219 222 225 228 231 234 237 240 243 246 249 252 255 258 261 264 267 270 273 276 279 282 285 288 291 294 297 300 303 306 309 312 315 318 321 324 327 330 333 336 </DataArray>
<DataArray  type="UInt8"  Name="types"  format="ascii">5 5 5 5 5 5 5 5 5 5 5 5 5 5 5 5 5 5 5 5 5 5 5 5 5 5 5 5 5 5 5 5 5 5 5 5 5 5 5 5 5 5 5 5 5 5 5 5 5 5 5 5 5 5 5 5 5 5 5 5 5 5 5 5 5 5 5 5 5 5 5 5 5 5 5 5 5 5 5 5 5 5 5 5 5 5 5 5 5 5 5 5 5 5 5 5 5 5 5 5 5 5 5 5 5 5 5 5 5 5 5 5 </DataArray>
</Cells>
<PointData  Scalars="ControlVisualization"> 
<DataArray  type="Float64"  Name="ControlVisualization"  format="ascii">1.0463160432958694e+00  1.1164895702452429e+00  1.0777844910079881e+00  1.0002878059225147e+00  1.1134628460686564e+00  1.2788439633196917e+00  1.2620230801005097e+00  1.2152559491529369e+00  1.0214882397446114e+00  1.1205312375027885e+00  1.1971966283093343e+00  1.1414561819202591e+00  1.1656180387269384e+00  1.2571596145401516e+00  1.2205994720926840e+00  1.1709697781148465e+00  1.0254407478555667e+00  1.1355032171213479e+00  1.4165804260247907e+00  1.5197803459637715e+00  1.4479571878399697e+00  1.3068929703584566e+00  1.1428968442513630e+00  1.0587566427262567e+00  1.1026533801800915e+00  1.1462938719084108e+00  1.5092420967543578e+00  1.8462732877733994e+00  1.8038851932640172e+00  1.4836699599207326e+00  1.1768178815195756e+00  1.0548287881206260e+00  1.1626667257583003e+00  1.1473578030471507e+00  1.3492287444026048e+00  1.7342460319172321e+00  1.8170161472757205e+00  1.5516360550852888e+00  1.2627911224978472e+00  1.1552426914436624e+00  1.1247711005468093e+00  1.0983972449745854e+00  1.1058711053220285e+00  1.2971061712300076e+00  1.4214325359197844e+00  1.3336093395211788e+00  1.1981926825228995e+00  1.1599617254817762e+00  1.0482495001237193e+00  1.0335495585126757e+00  1.0000452956228232e+00  1.0000341816580101e+00  1.0118098243246498e+00  1.0390098467131574e+00  1.0427895357243244e+00  1.0538764625872052e+00  1.0049968992851108e+00  1.0004576863675603e+00  1.0000310531310344e+00  1.0000137882724272e+00  1.0000113630979683e+00  1.0000174861546633e+00  1.0000513540469860e+00  1.0004245177493836e+00  1.0036172787611086e+00  1.0005034758257509e+00  1.0001029322389903e+00  1.0000380246781122e+00  1.0000252380988788e+00  1.0000283221645072e+00  1.0000585508185960e+00  1.0002338616486752e+00  </DataArray> 
</PointData> 
</Piece>
</UnstructuredGrid>
</VTKFile>