<?xml version="1.0"?>
<VTKFile type="UnstructuredGrid"  version="0.1"  >
<UnstructuredGrid>
<Piece  NumberOfPoints="72" NumberOfCells="112">
<Points>
<DataArray  type="Float64"  NumberOfComponents="3"  format="ascii">0 0 0  1 0 0  2 0 0  3 0 0  4 0 0  5 0 0  6 0 0  7 0 0  0 1 0  1 1 0  2 1 0  3 1 0  4 1 0  5 1 0  6 1 0  7 1 0  0 2 0  1 2 0  2 2 0  3 2 0  4 2 0  5 2 0  6 2 0  7 2 0  0 3 0  1 3 0  2 3 0  3 3 0  4 3 0  5 3 0  6 3 0  7 3 0  0 4 0  1 4 0  2 4 0  3 4 0  4 4 0  5 4 0  6 4 0  7 4 0  0 5 0  1 5 0  2 5 0  3 5 0  4 5 0  5 5 0  6 5 0  7 5 0  0 6 0  1 6 0  2 6 0  3 6 0  4 6 0  5 6 0  6 6 0  7 6 0  0 7 0  1 7 0  2 7 0  3 7 0  4 7 0  5 7 0  6 7 0  7 7 0  0 8 0  1 8 0  2 8 0  3 8 0  4 8 0  5 8 0  6 8 0  7 8 0  </DataArray>
</Points>
<Cells>
<DataArray  type="UInt32"  Name="connectivity"  format="ascii">0 8 9  0 1 9  1 9 10  1 2 10  2 10 11  2 3 11  3 11 12  3 4 12  4 12 13  4 5 13  5 13 14  5 6 14  6 14 15  6 7 15  8 16 17  8 9 17  9 17 18  9 10 18  10 18 19  10 11 19  11 19 20  11 12 20  12 20 21  12 13 21  13 21 22  13 14 22  14 22 23  14 15 23  16 24 25  16 17 25  17 25 26  17 18 26  18 26 27  18 19 27  19 27 28  19 20 28  20 28 29  20 21 29  21 29 30  21 22 30  22 30 31  22 23 31  24 32 33  24 25 33  25 33 34  25 26 34  26 34 35  26 27 35  27 35 36  27 28 36  28 36 37  28 29 37  29 37 38  29 30 38  30 38 39  30 31 39  32 40 41  32 33 41  33 41 42  33 34 42  34 42 43  34 35 43  35 43 44  35 36 44  36 44 45  36 37 45  37 45 46  37 38 46  38 46 47  38 39 47  40 48 49  40 41 49  41 49 50  41 42 50  42 50 51  42 43 51  43 51 52  43 44 52  44 52 53  44 45 53  45 53 54  45 46 54  46 54 55  46 47 55  48 56 57  48 49 57  49 57 58  49 50 58  50 58 59  50 51 59  51 59 60  51 52 60  52 60 61  52 53 61  53 61 62  53 54 62  54 62 63  54 55 63  56 64 65  56 57 65  57 65 66  57 58 66  58 66 67  58 59 67  59 67 68  59 60 68  60 68 69  60 61 69  61 69 70  61 62 70  62 70 71  62 63 71  </DataArray>
<DataArray  type="UInt32"  Name="offsets"  format="ascii">3 6 9 12 15 18 21 24 27 30 33 36 39 42 45 48 51 54 57 60 63 66 69 72 75 78 81 84 87 90 93 96 99 102 105 108 111 114 117 120 123 126 129 132 135 138 141 144 147 150 153 156 159 162 165 168 171 174 177 180 183 186 189 192 195 198 201 204 207 210 213 216 219 222 225 228 231 234 237 240 243 246 249 252 255 258 261 264 267 270 273 276 279 282 285 288 291 294 297 300 303 306 309 312 315 318 321 324 327 330 333 336 </DataArray>
<DataArray  type="UInt8"  Name="types"  format="ascii">5 5 5 5 5 5 5 5 5 5 5 5 5 5 5 5 5 5 5 5 5 5 5 5 5 5 5 5 5 5 5 5 5 5 5 5 5 5 5 5 5 5 5 5 5 5 5 5 5 5 5 5 5 5 5 5 5 5 5 5 5 5 5 5 5 5 5 5 5 5 5 5 5 5 5 5 5 5 5 5 5 5 5 5 5 5 5 5 5 5 5 5 5 5 5 5 5 5 5 5 5 5 5 5 5 5 5 5 5 5 5 5 </DataArray>
</Cells>
<PointData  Scalars="ControlVisualization"> 
<DataArray  type="Float64"  Name="ControlVisualization"  format="ascii">1.0520380142038963e+00  1.1095774090650663e+00  1.0732471137709356e+00  1.0014637691856905e+00  1.1264982891440316e+00  1.2912635485926023e+00  1.2750511135526137e+00  1.2356141519313422e+00  1.0230488593537244e+00  1.1134032696151623e+00  1.1892756341894417e+00  1.1446793305007845e+00  1.1803014145569508e+00  1.2704769746240427e+00  1.2306580529012565e+00  1.1825362979272456e+00  1.0248476775913988e+00  1.1372482006005722e+00  1.4142114676812951e+00  1.5262634741802004e+00  1.4593105452343631e+00  1.3204403337821535e+00  1.1535740195871700e+00  1.0618016011727618e+00  1.1026540070933324e+00  1.1496147183917496e+00  1.5061063571888118e+00  1.8485063609802683e+00  1.8087238569026207e+00  1.4932040384915763e+00  1.1814755023629784e+00  1.0569966621354778e+00  1.1630855177035055e+00  1.1518561047477671e+00  1.3530112503923977e+00  1.7391521201547455e+00  1.8220704425885186e+00  1.5608054403565077e+00  1.2716145917622648e+00  1.1596649556169443e+00  1.1270791292736480e+00  1.1035637671611007e+00  1.1128468124128219e+00  1.3006900896234264e+00  1.4266680329086425e+00  1.3404014491361194e+00  1.2072816811642344e+00  1.1714209355860628e+00  1.0521638199230303e+00  1.0392958390668490e+00  1.0002954195314886e+00  1.0001985607133701e+00  1.0142747229444409e+00  1.0459765967915571e+00  1.0504671783977442e+00  1.0660730574193000e+00  1.0133913728549948e+00  1.0044618222148345e+00  1.0001728284424523e+00  1.0000778131564505e+00  1.0000645759268716e+00  1.0001006930206457e+00  1.0003490300660924e+00  1.0022777871248856e+00  1.0183615762729068e+00  1.0043192213626211e+00  1.0005823842481159e+00  1.0002032362932558e+00  1.0001417286544223e+00  1.0001565176953184e+00  1.0003091878333643e+00  1.0008126675798772e+00  </DataArray> 
</PointData> 
</Piece>
</UnstructuredGrid>
</VTKFile>