<?xml version="1.0"?>
<VTKFile type="UnstructuredGrid"  version="0.1"  >
<UnstructuredGrid>
<Piece  NumberOfPoints="72" NumberOfCells="112">
<Points>
<DataArray  type="Float64"  NumberOfComponents="3"  format="ascii">0 0 0  1 0 0  2 0 0  3 0 0  4 0 0  5 0 0  6 0 0  7 0 0  0 1 0  1 1 0  2 1 0  3 1 0  4 1 0  5 1 0  6 1 0  7 1 0  0 2 0  1 2 0  2 2 0  3 2 0  4 2 0  5 2 0  6 2 0  7 2 0  0 3 0  1 3 0  2 3 0  3 3 0  4 3 0  5 3 0  6 3 0  7 3 0  0 4 0  1 4 0  2 4 0  3 4 0  4 4 0  5 4 0  6 4 0  7 4 0  0 5 0  1 5 0  2 5 0  3 5 0  4 5 0  5 5 0  6 5 0  7 5 0  0 6 0  1 6 0  2 6 0  3 6 0  4 6 0  5 6 0  6 6 0  7 6 0  0 7 0  1 7 0  2 7 0  3 7 0  4 7 0  5 7 0  6 7 0  7 7 0  0 8 0  1 8 0  2 8 0  3 8 0  4 8 0  5 8 0  6 8 0  7 8 0  </DataArray>
</Points>
<Cells>
<DataArray  type="UInt32"  Name="connectivity"  format="ascii">0 8 9  0 1 9  1 9 10  1 2 10  2 10 11  2 3 11  3 11 12  3 4 12  4 12 13  4 5 13  5 13 14  5 6 14  6 14 15  6 7 15  8 16 17  8 9 17  9 17 18  9 10 18  10 18 19  10 11 19  11 19 20  11 12 20  12 20 21  12 13 21  13 21 22  13 14 22  14 22 23  14 15 23  16 24 25  16 17 25  17 25 26  17 18 26  18 26 27  18 19 27  19 27 28  19 20 28  20 28 29  20 21 29  21 29 30  21 22 30  22 30 31  22 23 31  24 32 33  24 25 33  25 33 34  25 26 34  26 34 35  26 27 35  27 35 36  27 28 36  28 36 37  28 29 37  29 37 38  29 30 38  30 38 39  30 31 39  32 40 41  32 33 41  33 41 42  33 34 42  34 42 43  34 35 43  35 43 44  35 36 44  36 44 45  36 37 45  37 45 46  37 38 46  38 46 47  38 39 47  40 48 49  40 41 49  41 49 50  41 42 50  42 50 51  42 43 51  43 51 52  43 44 52  44 52 53  44 45 53  45 53 54  45 46 54  46 54 55  46 47 55  48 56 57  48 49 57  49 57 58  49 50 58  50 58 59  50 51 59  51 59 60  51 52 60  52 60 61  52 53 61  53 61 62  53 54 62  54 62 63  54 55 63  56 64 65  56 57 65  57 65 66  57 58 66  58 66 67  58 59 67  59 67 68  59 60 68  60 68 69  60 61 69  61 69 70  61 62 70  62 70 71  62 63 71  </DataArray>
<DataArray  type="UInt32"  Name="offsets"  format="ascii">3 6 9 12 15 18 21 24 27 30 33 36 39 42 45 48 51 54 57 60 63 66 69 72 75 78 81 84 87 90 93 96 99 102 105 108 111 114 117 120 123 126 129 132 135 138 141 144 147 150 153 156 159 162 165 168 171 174 177 180 183 186 189 192 195 198 201 204 207 210 213 216 219 222 225 228 231 234 237 240 243 246 249 252 255 258 261 264 267 270 273 276 279 282 285 288 291 294 297 300 303 306 309 312 315 318 321 324 327 330 333 336 </DataArray>
<DataArray  type="UInt8"  Name="types"  format="ascii">5 5 5 5 5 5 5 5 5 5 5 5 5 5 5 5 5 5 5 5 5 5 5 5 5 5 5 5 5 5 5 5 5 5 5 5 5 5 5 5 5 5 5 5 5 5 5 5 5 5 5 5 5 5 5 5 5 5 5 5 5 5 5 5 5 5 5 5 5 5 5 5 5 5 5 5 5 5 5 5 5 5 5 5 5 5 5 5 5 5 5 5 5 5 5 5 5 5 5 5 5 5 5 5 5 5 5 5 5 5 5 5 </DataArray>
</Cells>
<PointData  Scalars="ControlVisualization"> 
<DataArray  type="Float64"  Name="ControlVisualization"  format="ascii">6.0260116584676338e+00  6.9283413731648835e+00  7.6155211683211403e+00  8.1041119052119246e+00  8.2170235115725401e+00  7.8015516720097091e+00  6.9587146032859906e+00  6.3337072152650595e+00  5.4875044097205006e+00  6.4405417142683081e+00  7.6274295216995078e+00  8.1551353156077422e+00  8.0410523914154979e+00  7.6654488894378474e+00  6.6921938255268705e+00  6.0344856402181577e+00  5.1984487151642522e+00  5.6536415242966864e+00  6.9503748949146189e+00  7.4957483856887288e+00  7.5384150337092075e+00  6.9365273439806696e+00  5.8756608637203289e+00  5.2858759033016058e+00  4.8453497588232217e+00  5.2104267339434314e+00  6.3059072149990909e+00  6.9450404937178645e+00  6.9426719575773097e+00  6.3632159628173754e+00  5.2494970375730361e+00  4.6916055786088737e+00  4.6068180642508905e+00  4.9580680779787034e+00  5.5972508278833049e+00  6.1049392844218504e+00  6.1656231399959118e+00  5.7057376182637647e+00  4.8802236825484542e+00  4.4131916086126735e+00  4.6317169633133766e+00  4.6903475596240343e+00  4.9899337111573523e+00  5.1689039378110939e+00  5.2319604196153913e+00  5.0541506561132827e+00  4.6515067857986221e+00  4.4201925547155110e+00  4.8344670837199688e+00  4.7198412796812024e+00  4.5976723268865305e+00  4.5193156034999840e+00  4.5177249103157626e+00  4.5696990710967098e+00  4.5826367047111400e+00  4.6003453032308350e+00  5.1736547214791564e+00  4.8876981580865655e+00  4.5353869320991427e+00  4.2510792215635362e+00  4.1907464728907513e+00  4.3665331794221860e+00  4.6708654668347078e+00  4.9086130421221332e+00  5.5425050266526741e+00  5.1386729883289490e+00  4.6923752777486376e+00  4.3425852291221751e+00  4.2378398792671534e+00  4.4371432199217127e+00  4.8441358224237767e+00  5.2593701857187085e+00  </DataArray> 
</PointData> 
</Piece>
</UnstructuredGrid>
</VTKFile>