<?xml version="1.0"?>
<VTKFile type="UnstructuredGrid"  version="0.1"  >
<UnstructuredGrid>
<Piece  NumberOfPoints="72" NumberOfCells="112">
<Points>
<DataArray  type="Float64"  NumberOfComponents="3"  format="ascii">0 0 0  1 0 0  2 0 0  3 0 0  4 0 0  5 0 0  6 0 0  7 0 0  0 1 0  1 1 0  2 1 0  3 1 0  4 1 0  5 1 0  6 1 0  7 1 0  0 2 0  1 2 0  2 2 0  3 2 0  4 2 0  5 2 0  6 2 0  7 2 0  0 3 0  1 3 0  2 3 0  3 3 0  4 3 0  5 3 0  6 3 0  7 3 0  0 4 0  1 4 0  2 4 0  3 4 0  4 4 0  5 4 0  6 4 0  7 4 0  0 5 0  1 5 0  2 5 0  3 5 0  4 5 0  5 5 0  6 5 0  7 5 0  0 6 0  1 6 0  2 6 0  3 6 0  4 6 0  5 6 0  6 6 0  7 6 0  0 7 0  1 7 0  2 7 0  3 7 0  4 7 0  5 7 0  6 7 0  7 7 0  0 8 0  1 8 0  2 8 0  3 8 0  4 8 0  5 8 0  6 8 0  7 8 0  </DataArray>
</Points>
<Cells>
<DataArray  type="UInt32"  Name="connectivity"  format="ascii">0 8 9  0 1 9  1 9 10  1 2 10  2 10 11  2 3 11  3 11 12  3 4 12  4 12 13  4 5 13  5 13 14  5 6 14  6 14 15  6 7 15  8 16 17  8 9 17  9 17 18  9 10 18  10 18 19  10 11 19  11 19 20  11 12 20  12 20 21  12 13 21  13 21 22  13 14 22  14 22 23  14 15 23  16 24 25  16 17 25  17 25 26  17 18 26  18 26 27  18 19 27  19 27 28  19 20 28  20 28 29  20 21 29  21 29 30  21 22 30  22 30 31  22 23 31  24 32 33  24 25 33  25 33 34  25 26 34  26 34 35  26 27 35  27 35 36  27 28 36  28 36 37  28 29 37  29 37 38  29 30 38  30 38 39  30 31 39  32 40 41  32 33 41  33 41 42  33 34 42  34 42 43  34 35 43  35 43 44  35 36 44  36 44 45  36 37 45  37 45 46  37 38 46  38 46 47  38 39 47  40 48 49  40 41 49  41 49 50  41 42 50  42 50 51  42 43 51  43 51 52  43 44 52  44 52 53  44 45 53  45 53 54  45 46 54  46 54 55  46 47 55  48 56 57  48 49 57  49 57 58  49 50 58  50 58 59  50 51 59  51 59 60  51 52 60  52 60 61  52 53 61  53 61 62  53 54 62  54 62 63  54 55 63  56 64 65  56 57 65  57 65 66  57 58 66  58 66 67  58 59 67  59 67 68  59 60 68  60 68 69  60 61 69  61 69 70  61 62 70  62 70 71  62 63 71  </DataArray>
<DataArray  type="UInt32"  Name="offsets"  format="ascii">3 6 9 12 15 18 21 24 27 30 33 36 39 42 45 48 51 54 57 60 63 66 69 72 75 78 81 84 87 90 93 96 99 102 105 108 111 114 117 120 123 126 129 132 135 138 141 144 147 150 153 156 159 162 165 168 171 174 177 180 183 186 189 192 195 198 201 204 207 210 213 216 219 222 225 228 231 234 237 240 243 246 249 252 255 258 261 264 267 270 273 276 279 282 285 288 291 294 297 300 303 306 309 312 315 318 321 324 327 330 333 336 </DataArray>
<DataArray  type="UInt8"  Name="types"  format="ascii">5 5 5 5 5 5 5 5 5 5 5 5 5 5 5 5 5 5 5 5 5 5 5 5 5 5 5 5 5 5 5 5 5 5 5 5 5 5 5 5 5 5 5 5 5 5 5 5 5 5 5 5 5 5 5 5 5 5 5 5 5 5 5 5 5 5 5 5 5 5 5 5 5 5 5 5 5 5 5 5 5 5 5 5 5 5 5 5 5 5 5 5 5 5 5 5 5 5 5 5 5 5 5 5 5 5 5 5 5 5 5 5 </DataArray>
</Cells>
<PointData  Scalars="ControlVisualization"> 
<DataArray  type="Float64"  Name="ControlVisualization"  format="ascii">5.6999585868157068e+00  5.8445607953499685e+00  5.8394290033244012e+00  5.8411738409843181e+00  5.8511120972623019e+00  5.8583709181760746e+00  5.7720598670193937e+00  5.7174843448254951e+00  5.5791163086484294e+00  5.7330490893271460e+00  5.9264883285154859e+00  5.9402552905384356e+00  5.9470345257560302e+00  5.9265462752116722e+00  5.7704556456522571e+00  5.6825649149726472e+00  5.6213683859675605e+00  5.6173896239420928e+00  5.8093061056322499e+00  5.8754265658940072e+00  5.8761179662523357e+00  5.8243398421492634e+00  5.6592506188376817e+00  5.6115269090193447e+00  5.6392348691555183e+00  5.6091913807442104e+00  5.7017777869744730e+00  5.7643312796328310e+00  5.7782664127354115e+00  5.7323020751983167e+00  5.6065354326056314e+00  5.5992120587857164e+00  5.6577378124758457e+00  5.6156734212515840e+00  5.6587004384331809e+00  5.6817586176861639e+00  5.6898723151257329e+00  5.6698447627676414e+00  5.5992175521759222e+00  5.6147459874251302e+00  5.6780454586435329e+00  5.6351565709149227e+00  5.6452221774353388e+00  5.6426499302439108e+00  5.6416733523345428e+00  5.6429900237511132e+00  5.6208832908967690e+00  5.6429093222474798e+00  5.6957985499946293e+00  5.6585770065946663e+00  5.6466764011656148e+00  5.6300022299690919e+00  5.6257673927981777e+00  5.6400424454383860e+00  5.6517327127116310e+00  5.6730927182080340e+00  5.7072430375298602e+00  5.6772330623510898e+00  5.6544520271313328e+00  5.6331151336994667e+00  5.6279817553386895e+00  5.6448536751470844e+00  5.6738782349399077e+00  5.6965718012541977e+00  5.7173623648721446e+00  5.7059858195021107e+00  5.6922839336875706e+00  5.6787987743884702e+00  5.6731899962900032e+00  5.6784952934787611e+00  5.6937799245664786e+00  5.7092112658670118e+00  </DataArray> 
</PointData> 
</Piece>
</UnstructuredGrid>
</VTKFile>