<?xml version="1.0"?>
<VTKFile type="UnstructuredGrid"  version="0.1"  >
<UnstructuredGrid>
<Piece  NumberOfPoints="72" NumberOfCells="112">
<Points>
<DataArray  type="Float64"  NumberOfComponents="3"  format="ascii">0 0 0  1 0 0  2 0 0  3 0 0  4 0 0  5 0 0  6 0 0  7 0 0  0 1 0  1 1 0  2 1 0  3 1 0  4 1 0  5 1 0  6 1 0  7 1 0  0 2 0  1 2 0  2 2 0  3 2 0  4 2 0  5 2 0  6 2 0  7 2 0  0 3 0  1 3 0  2 3 0  3 3 0  4 3 0  5 3 0  6 3 0  7 3 0  0 4 0  1 4 0  2 4 0  3 4 0  4 4 0  5 4 0  6 4 0  7 4 0  0 5 0  1 5 0  2 5 0  3 5 0  4 5 0  5 5 0  6 5 0  7 5 0  0 6 0  1 6 0  2 6 0  3 6 0  4 6 0  5 6 0  6 6 0  7 6 0  0 7 0  1 7 0  2 7 0  3 7 0  4 7 0  5 7 0  6 7 0  7 7 0  0 8 0  1 8 0  2 8 0  3 8 0  4 8 0  5 8 0  6 8 0  7 8 0  </DataArray>
</Points>
<Cells>
<DataArray  type="UInt32"  Name="connectivity"  format="ascii">0 8 9  0 1 9  1 9 10  1 2 10  2 10 11  2 3 11  3 11 12  3 4 12  4 12 13  4 5 13  5 13 14  5 6 14  6 14 15  6 7 15  8 16 17  8 9 17  9 17 18  9 10 18  10 18 19  10 11 19  11 19 20  11 12 20  12 20 21  12 13 21  13 21 22  13 14 22  14 22 23  14 15 23  16 24 25  16 17 25  17 25 26  17 18 26  18 26 27  18 19 27  19 27 28  19 20 28  20 28 29  20 21 29  21 29 30  21 22 30  22 30 31  22 23 31  24 32 33  24 25 33  25 33 34  25 26 34  26 34 35  26 27 35  27 35 36  27 28 36  28 36 37  28 29 37  29 37 38  29 30 38  30 38 39  30 31 39  32 40 41  32 33 41  33 41 42  33 34 42  34 42 43  34 35 43  35 43 44  35 36 44  36 44 45  36 37 45  37 45 46  37 38 46  38 46 47  38 39 47  40 48 49  40 41 49  41 49 50  41 42 50  42 50 51  42 43 51  43 51 52  43 44 52  44 52 53  44 45 53  45 53 54  45 46 54  46 54 55  46 47 55  48 56 57  48 49 57  49 57 58  49 50 58  50 58 59  50 51 59  51 59 60  51 52 60  52 60 61  52 53 61  53 61 62  53 54 62  54 62 63  54 55 63  56 64 65  56 57 65  57 65 66  57 58 66  58 66 67  58 59 67  59 67 68  59 60 68  60 68 69  60 61 69  61 69 70  61 62 70  62 70 71  62 63 71  </DataArray>
<DataArray  type="UInt32"  Name="offsets"  format="ascii">3 6 9 12 15 18 21 24 27 30 33 36 39 42 45 48 51 54 57 60 63 66 69 72 75 78 81 84 87 90 93 96 99 102 105 108 111 114 117 120 123 126 129 132 135 138 141 144 147 150 153 156 159 162 165 168 171 174 177 180 183 186 189 192 195 198 201 204 207 210 213 216 219 222 225 228 231 234 237 240 243 246 249 252 255 258 261 264 267 270 273 276 279 282 285 288 291 294 297 300 303 306 309 312 315 318 321 324 327 330 333 336 </DataArray>
<DataArray  type="UInt8"  Name="types"  format="ascii">5 5 5 5 5 5 5 5 5 5 5 5 5 5 5 5 5 5 5 5 5 5 5 5 5 5 5 5 5 5 5 5 5 5 5 5 5 5 5 5 5 5 5 5 5 5 5 5 5 5 5 5 5 5 5 5 5 5 5 5 5 5 5 5 5 5 5 5 5 5 5 5 5 5 5 5 5 5 5 5 5 5 5 5 5 5 5 5 5 5 5 5 5 5 5 5 5 5 5 5 5 5 5 5 5 5 5 5 5 5 5 5 </DataArray>
</Cells>
<PointData  Scalars="ControlVisualization"> 
<DataArray  type="Float64"  Name="ControlVisualization"  format="ascii">1.0454973966166687e+00  1.1162541249012565e+00  1.0781554136504095e+00  1.0002909346503972e+00  1.1123449336711491e+00  1.2767406695492700e+00  1.2608684814730156e+00  1.2164797740328399e+00  1.0215840160386658e+00  1.1203595167247202e+00  1.1971638692447681e+00  1.1412405162500687e+00  1.1649468752510239e+00  1.2554779823413733e+00  1.2193293815133890e+00  1.1707815962969721e+00  1.0255753399136853e+00  1.1356792126743638e+00  1.4166948919099955e+00  1.5198825928190143e+00  1.4474917851557387e+00  1.3057510161813841e+00  1.1421709302637466e+00  1.0581423681596100e+00  1.1027091586035762e+00  1.1464210508621291e+00  1.5088020676138882e+00  1.8460361355564248e+00  1.8031919595547294e+00  1.4827546917055532e+00  1.1758106961710442e+00  1.0540137463359827e+00  1.1626424364508119e+00  1.1472916471125403e+00  1.3490735489071111e+00  1.7342096373614431e+00  1.8166954971957485e+00  1.5510318450792202e+00  1.2619158092904352e+00  1.1541241591045990e+00  1.1248804175006957e+00  1.0983434457367094e+00  1.1058672387011397e+00  1.2968870171125626e+00  1.4209630262121482e+00  1.3330464928007766e+00  1.1971916841890098e+00  1.1591559096482558e+00  1.0486044691813765e+00  1.0338929757894235e+00  1.0000453080850187e+00  1.0000341252073059e+00  1.0115418945008678e+00  1.0388301001419014e+00  1.0422221309741018e+00  1.0533321490430236e+00  1.0054550794144732e+00  1.0004777040029749e+00  1.0000310365662028e+00  1.0000137816956189e+00  1.0000113548364660e+00  1.0000174694902766e+00  1.0000511832228673e+00  1.0004185781975088e+00  1.0041081743509737e+00  1.0005115798426956e+00  1.0001028686165117e+00  1.0000380072709534e+00  1.0000252238238918e+00  1.0000282995906340e+00  1.0000584765977258e+00  1.0002329469088542e+00  </DataArray> 
</PointData> 
</Piece>
</UnstructuredGrid>
</VTKFile>