<?xml version="1.0"?>
<VTKFile type="UnstructuredGrid"  version="0.1"  >
<UnstructuredGrid>
<Piece  NumberOfPoints="72" NumberOfCells="112">
<Points>
<DataArray  type="Float64"  NumberOfComponents="3"  format="ascii">0 0 0  1 0 0  2 0 0  3 0 0  4 0 0  5 0 0  6 0 0  7 0 0  0 1 0  1 1 0  2 1 0  3 1 0  4 1 0  5 1 0  6 1 0  7 1 0  0 2 0  1 2 0  2 2 0  3 2 0  4 2 0  5 2 0  6 2 0  7 2 0  0 3 0  1 3 0  2 3 0  3 3 0  4 3 0  5 3 0  6 3 0  7 3 0  0 4 0  1 4 0  2 4 0  3 4 0  4 4 0  5 4 0  6 4 0  7 4 0  0 5 0  1 5 0  2 5 0  3 5 0  4 5 0  5 5 0  6 5 0  7 5 0  0 6 0  1 6 0  2 6 0  3 6 0  4 6 0  5 6 0  6 6 0  7 6 0  0 7 0  1 7 0  2 7 0  3 7 0  4 7 0  5 7 0  6 7 0  7 7 0  0 8 0  1 8 0  2 8 0  3 8 0  4 8 0  5 8 0  6 8 0  7 8 0  </DataArray>
</Points>
<Cells>
<DataArray  type="UInt32"  Name="connectivity"  format="ascii">0 8 9  0 1 9  1 9 10  1 2 10  2 10 11  2 3 11  3 11 12  3 4 12  4 12 13  4 5 13  5 13 14  5 6 14  6 14 15  6 7 15  8 16 17  8 9 17  9 17 18  9 10 18  10 18 19  10 11 19  11 19 20  11 12 20  12 20 21  12 13 21  13 21 22  13 14 22  14 22 23  14 15 23  16 24 25  16 17 25  17 25 26  17 18 26  18 26 27  18 19 27  19 27 28  19 20 28  20 28 29  20 21 29  21 29 30  21 22 30  22 30 31  22 23 31  24 32 33  24 25 33  25 33 34  25 26 34  26 34 35  26 27 35  27 35 36  27 28 36  28 36 37  28 29 37  29 37 38  29 30 38  30 38 39  30 31 39  32 40 41  32 33 41  33 41 42  33 34 42  34 42 43  34 35 43  35 43 44  35 36 44  36 44 45  36 37 45  37 45 46  37 38 46  38 46 47  38 39 47  40 48 49  40 41 49  41 49 50  41 42 50  42 50 51  42 43 51  43 51 52  43 44 52  44 52 53  44 45 53  45 53 54  45 46 54  46 54 55  46 47 55  48 56 57  48 49 57  49 57 58  49 50 58  50 58 59  50 51 59  51 59 60  51 52 60  52 60 61  52 53 61  53 61 62  53 54 62  54 62 63  54 55 63  56 64 65  56 57 65  57 65 66  57 58 66  58 66 67  58 59 67  59 67 68  59 60 68  60 68 69  60 61 69  61 69 70  61 62 70  62 70 71  62 63 71  </DataArray>
<DataArray  type="UInt32"  Name="offsets"  format="ascii">3 6 9 12 15 18 21 24 27 30 33 36 39 42 45 48 51 54 57 60 63 66 69 72 75 78 81 84 87 90 93 96 99 102 105 108 111 114 117 120 123 126 129 132 135 138 141 144 147 150 153 156 159 162 165 168 171 174 177 180 183 186 189 192 195 198 201 204 207 210 213 216 219 222 225 228 231 234 237 240 243 246 249 252 255 258 261 264 267 270 273 276 279 282 285 288 291 294 297 300 303 306 309 312 315 318 321 324 327 330 333 336 </DataArray>
<DataArray  type="UInt8"  Name="types"  format="ascii">5 5 5 5 5 5 5 5 5 5 5 5 5 5 5 5 5 5 5 5 5 5 5 5 5 5 5 5 5 5 5 5 5 5 5 5 5 5 5 5 5 5 5 5 5 5 5 5 5 5 5 5 5 5 5 5 5 5 5 5 5 5 5 5 5 5 5 5 5 5 5 5 5 5 5 5 5 5 5 5 5 5 5 5 5 5 5 5 5 5 5 5 5 5 5 5 5 5 5 5 5 5 5 5 5 5 5 5 5 5 5 5 </DataArray>
</Cells>
<PointData  Scalars="ControlVisualization"> 
<DataArray  type="Float64"  Name="ControlVisualization"  format="ascii">1.0466424806880732e+00  1.1162642111869276e+00  1.0776322832045482e+00  1.0003563146148329e+00  1.1140244586100794e+00  1.2795067811966090e+00  1.2625617270965579e+00  1.2157329409623643e+00  1.0215263089266116e+00  1.1204426551600037e+00  1.1969101924012304e+00  1.1416711681861778e+00  1.1662145214692963e+00  1.2578879851421365e+00  1.2210231546898609e+00  1.1713046084646335e+00  1.0252770129279982e+00  1.1357063089603920e+00  1.4165883435544337e+00  1.5199595287335834e+00  1.4483540004402196e+00  1.3073952111195053e+00  1.1431909635390114e+00  1.0587913203954913e+00  1.1025571208416058e+00  1.1463075417749722e+00  1.5092411491010937e+00  1.8464840854821913e+00  1.8040251060402923e+00  1.4840288578133305e+00  1.1769535501239339e+00  1.0548837481080926e+00  1.1626407480948244e+00  1.1472724458611427e+00  1.3495273810017943e+00  1.7343308207168540e+00  1.8172512445197671e+00  1.5519435899440086e+00  1.2630858773670319e+00  1.1554648872713171e+00  1.1247832696450846e+00  1.0985311077160202e+00  1.1059996428447216e+00  1.2972759415605877e+00  1.4216665097850554e+00  1.3338211562912141e+00  1.1986437705702861e+00  1.1603611561682829e+00  1.0483331051907543e+00  1.0336088609440099e+00  1.0000532466764689e+00  1.0000403414464789e+00  1.0119150612456578e+00  1.0392636705276204e+00  1.0430661598253159e+00  1.0543248334396351e+00  1.0052390160222326e+00  1.0005608324706019e+00  1.0000365303300138e+00  1.0000162728281001e+00  1.0000134149848421e+00  1.0000206813905255e+00  1.0000606894341073e+00  1.0005211766107773e+00  1.0039950209990058e+00  1.0006239334452949e+00  1.0001210459773835e+00  1.0000448570232330e+00  1.0000297937599032e+00  1.0000334442798320e+00  1.0000691561598680e+00  1.0002770724248009e+00  </DataArray> 
</PointData> 
</Piece>
</UnstructuredGrid>
</VTKFile>