<?xml version="1.0"?>
<VTKFile type="UnstructuredGrid"  version="0.1"  >
<UnstructuredGrid>
<Piece  NumberOfPoints="72" NumberOfCells="112">
<Points>
<DataArray  type="Float64"  NumberOfComponents="3"  format="ascii">0 0 0  1 0 0  2 0 0  3 0 0  4 0 0  5 0 0  6 0 0  7 0 0  0 1 0  1 1 0  2 1 0  3 1 0  4 1 0  5 1 0  6 1 0  7 1 0  0 2 0  1 2 0  2 2 0  3 2 0  4 2 0  5 2 0  6 2 0  7 2 0  0 3 0  1 3 0  2 3 0  3 3 0  4 3 0  5 3 0  6 3 0  7 3 0  0 4 0  1 4 0  2 4 0  3 4 0  4 4 0  5 4 0  6 4 0  7 4 0  0 5 0  1 5 0  2 5 0  3 5 0  4 5 0  5 5 0  6 5 0  7 5 0  0 6 0  1 6 0  2 6 0  3 6 0  4 6 0  5 6 0  6 6 0  7 6 0  0 7 0  1 7 0  2 7 0  3 7 0  4 7 0  5 7 0  6 7 0  7 7 0  0 8 0  1 8 0  2 8 0  3 8 0  4 8 0  5 8 0  6 8 0  7 8 0  </DataArray>
</Points>
<Cells>
<DataArray  type="UInt32"  Name="connectivity"  format="ascii">0 8 9  0 1 9  1 9 10  1 2 10  2 10 11  2 3 11  3 11 12  3 4 12  4 12 13  4 5 13  5 13 14  5 6 14  6 14 15  6 7 15  8 16 17  8 9 17  9 17 18  9 10 18  10 18 19  10 11 19  11 19 20  11 12 20  12 20 21  12 13 21  13 21 22  13 14 22  14 22 23  14 15 23  16 24 25  16 17 25  17 25 26  17 18 26  18 26 27  18 19 27  19 27 28  19 20 28  20 28 29  20 21 29  21 29 30  21 22 30  22 30 31  22 23 31  24 32 33  24 25 33  25 33 34  25 26 34  26 34 35  26 27 35  27 35 36  27 28 36  28 36 37  28 29 37  29 37 38  29 30 38  30 38 39  30 31 39  32 40 41  32 33 41  33 41 42  33 34 42  34 42 43  34 35 43  35 43 44  35 36 44  36 44 45  36 37 45  37 45 46  37 38 46  38 46 47  38 39 47  40 48 49  40 41 49  41 49 50  41 42 50  42 50 51  42 43 51  43 51 52  43 44 52  44 52 53  44 45 53  45 53 54  45 46 54  46 54 55  46 47 55  48 56 57  48 49 57  49 57 58  49 50 58  50 58 59  50 51 59  51 59 60  51 52 60  52 60 61  52 53 61  53 61 62  53 54 62  54 62 63  54 55 63  56 64 65  56 57 65  57 65 66  57 58 66  58 66 67  58 59 67  59 67 68  59 60 68  60 68 69  60 61 69  61 69 70  61 62 70  62 70 71  62 63 71  </DataArray>
<DataArray  type="UInt32"  Name="offsets"  format="ascii">3 6 9 12 15 18 21 24 27 30 33 36 39 42 45 48 51 54 57 60 63 66 69 72 75 78 81 84 87 90 93 96 99 102 105 108 111 114 117 120 123 126 129 132 135 138 141 144 147 150 153 156 159 162 165 168 171 174 177 180 183 186 189 192 195 198 201 204 207 210 213 216 219 222 225 228 231 234 237 240 243 246 249 252 255 258 261 264 267 270 273 276 279 282 285 288 291 294 297 300 303 306 309 312 315 318 321 324 327 330 333 336 </DataArray>
<DataArray  type="UInt8"  Name="types"  format="ascii">5 5 5 5 5 5 5 5 5 5 5 5 5 5 5 5 5 5 5 5 5 5 5 5 5 5 5 5 5 5 5 5 5 5 5 5 5 5 5 5 5 5 5 5 5 5 5 5 5 5 5 5 5 5 5 5 5 5 5 5 5 5 5 5 5 5 5 5 5 5 5 5 5 5 5 5 5 5 5 5 5 5 5 5 5 5 5 5 5 5 5 5 5 5 5 5 5 5 5 5 5 5 5 5 5 5 5 5 5 5 5 5 </DataArray>
</Cells>
<PointData  Scalars="ControlVisualization"> 
<DataArray  type="Float64"  Name="ControlVisualization"  format="ascii">6.0173454956089483e+00  7.0378453363039677e+00  7.3416955010787301e+00  8.3387502240106937e+00  8.3767295329227078e+00  7.7781468837345376e+00  6.9658899564114130e+00  6.3656564514612439e+00  5.4255282589671108e+00  6.3219510421576235e+00  8.6013622632233400e+00  7.9984308989374977e+00  8.2638016128999041e+00  7.9680923036695992e+00  6.8624432701696598e+00  5.9370506100723759e+00  5.4476041330691460e+00  5.0115122549294648e+00  6.7959734453795591e+00  7.7007895001200986e+00  7.3478615837149084e+00  6.9471049111000234e+00  5.6540865467133132e+00  5.3628983214056332e+00  4.6924490370671590e+00  5.5156435190876811e+00  6.2455473758379991e+00  6.8834376525271308e+00  7.1468561288070367e+00  6.4684296351379063e+00  5.1669821980904489e+00  4.6353767587500183e+00  4.5249939576052443e+00  4.7333560682146736e+00  5.8336552247691822e+00  6.0915485782693839e+00  6.0953531529802181e+00  5.7780673999714711e+00  4.8025477607388334e+00  4.2854970528599541e+00  4.5029102060925341e+00  4.6762344081682405e+00  4.9034480691741997e+00  5.1634563550561881e+00  5.1812342884601001e+00  5.0093763599971988e+00  4.5768008037855319e+00  4.3001372666331470e+00  4.7448824251594308e+00  4.6675742161613858e+00  4.5717848815628166e+00  4.4576616032199556e+00  4.4957126197946256e+00  4.4960301699920491e+00  4.5331058226393655e+00  4.5051379822586490e+00  5.1605961222953169e+00  4.8304414813485694e+00  4.4562737802604211e+00  4.1496685020426680e+00  4.0922609700794297e+00  4.2796530895497327e+00  4.6266065843208146e+00  4.8706253470807468e+00  5.5632508908586482e+00  5.1213431244523431e+00  4.6212581279374927e+00  4.2509065553604470e+00  4.1405468142893831e+00  4.3622464858412284e+00  4.8012138300110330e+00  5.2690812935785054e+00  </DataArray> 
</PointData> 
</Piece>
</UnstructuredGrid>
</VTKFile>