<?xml version="1.0"?>
<VTKFile type="UnstructuredGrid"  version="0.1"  >
<UnstructuredGrid>
<Piece  NumberOfPoints="72" NumberOfCells="112">
<Points>
<DataArray  type="Float64"  NumberOfComponents="3"  format="ascii">0 0 0  1 0 0  2 0 0  3 0 0  4 0 0  5 0 0  6 0 0  7 0 0  0 1 0  1 1 0  2 1 0  3 1 0  4 1 0  5 1 0  6 1 0  7 1 0  0 2 0  1 2 0  2 2 0  3 2 0  4 2 0  5 2 0  6 2 0  7 2 0  0 3 0  1 3 0  2 3 0  3 3 0  4 3 0  5 3 0  6 3 0  7 3 0  0 4 0  1 4 0  2 4 0  3 4 0  4 4 0  5 4 0  6 4 0  7 4 0  0 5 0  1 5 0  2 5 0  3 5 0  4 5 0  5 5 0  6 5 0  7 5 0  0 6 0  1 6 0  2 6 0  3 6 0  4 6 0  5 6 0  6 6 0  7 6 0  0 7 0  1 7 0  2 7 0  3 7 0  4 7 0  5 7 0  6 7 0  7 7 0  0 8 0  1 8 0  2 8 0  3 8 0  4 8 0  5 8 0  6 8 0  7 8 0  </DataArray>
</Points>
<Cells>
<DataArray  type="UInt32"  Name="connectivity"  format="ascii">0 8 9  0 1 9  1 9 10  1 2 10  2 10 11  2 3 11  3 11 12  3 4 12  4 12 13  4 5 13  5 13 14  5 6 14  6 14 15  6 7 15  8 16 17  8 9 17  9 17 18  9 10 18  10 18 19  10 11 19  11 19 20  11 12 20  12 20 21  12 13 21  13 21 22  13 14 22  14 22 23  14 15 23  16 24 25  16 17 25  17 25 26  17 18 26  18 26 27  18 19 27  19 27 28  19 20 28  20 28 29  20 21 29  21 29 30  21 22 30  22 30 31  22 23 31  24 32 33  24 25 33  25 33 34  25 26 34  26 34 35  26 27 35  27 35 36  27 28 36  28 36 37  28 29 37  29 37 38  29 30 38  30 38 39  30 31 39  32 40 41  32 33 41  33 41 42  33 34 42  34 42 43  34 35 43  35 43 44  35 36 44  36 44 45  36 37 45  37 45 46  37 38 46  38 46 47  38 39 47  40 48 49  40 41 49  41 49 50  41 42 50  42 50 51  42 43 51  43 51 52  43 44 52  44 52 53  44 45 53  45 53 54  45 46 54  46 54 55  46 47 55  48 56 57  48 49 57  49 57 58  49 50 58  50 58 59  50 51 59  51 59 60  51 52 60  52 60 61  52 53 61  53 61 62  53 54 62  54 62 63  54 55 63  56 64 65  56 57 65  57 65 66  57 58 66  58 66 67  58 59 67  59 67 68  59 60 68  60 68 69  60 61 69  61 69 70  61 62 70  62 70 71  62 63 71  </DataArray>
<DataArray  type="UInt32"  Name="offsets"  format="ascii">3 6 9 12 15 18 21 24 27 30 33 36 39 42 45 48 51 54 57 60 63 66 69 72 75 78 81 84 87 90 93 96 99 102 105 108 111 114 117 120 123 126 129 132 135 138 141 144 147 150 153 156 159 162 165 168 171 174 177 180 183 186 189 192 195 198 201 204 207 210 213 216 219 222 225 228 231 234 237 240 243 246 249 252 255 258 261 264 267 270 273 276 279 282 285 288 291 294 297 300 303 306 309 312 315 318 321 324 327 330 333 336 </DataArray>
<DataArray  type="UInt8"  Name="types"  format="ascii">5 5 5 5 5 5 5 5 5 5 5 5 5 5 5 5 5 5 5 5 5 5 5 5 5 5 5 5 5 5 5 5 5 5 5 5 5 5 5 5 5 5 5 5 5 5 5 5 5 5 5 5 5 5 5 5 5 5 5 5 5 5 5 5 5 5 5 5 5 5 5 5 5 5 5 5 5 5 5 5 5 5 5 5 5 5 5 5 5 5 5 5 5 5 5 5 5 5 5 5 5 5 5 5 5 5 5 5 5 5 5 5 </DataArray>
</Cells>
<PointData  Scalars="ControlVisualization"> 
<DataArray  type="Float64"  Name="ControlVisualization"  format="ascii">1.0467478944892916e+00  1.1160694086327114e+00  1.0775445926045801e+00  1.0003382172008151e+00  1.1142762697299431e+00  1.2794692667187524e+00  1.2626585534629640e+00  1.2162331332733471e+00  1.0214593688794988e+00  1.1201801332292831e+00  1.1970728133366384e+00  1.1420639052972232e+00  1.1664682530508570e+00  1.2584533629300370e+00  1.2208851528001219e+00  1.1714328338621176e+00  1.0252469331277463e+00  1.1357100157196078e+00  1.4165252580376690e+00  1.5199957787800262e+00  1.4487192208972002e+00  1.3072469543345582e+00  1.1432126887680645e+00  1.0584603323573023e+00  1.1025658748938811e+00  1.1461711965676038e+00  1.5095153978371072e+00  1.8466685693881650e+00  1.8041687182984427e+00  1.4843331054331339e+00  1.1763008532239903e+00  1.0545858530648951e+00  1.1624854606880246e+00  1.1474926023331751e+00  1.3494818646260198e+00  1.7342217192535010e+00  1.8173530185476316e+00  1.5516755476200643e+00  1.2630439547599199e+00  1.1552081796964411e+00  1.1246709403990369e+00  1.0987768894658110e+00  1.1059201530648528e+00  1.2973627073755021e+00  1.4217314005634596e+00  1.3339543999761834e+00  1.1986020688560253e+00  1.1603271950103433e+00  1.0485029717443388e+00  1.0334882728496799e+00  1.0000505118098708e+00  1.0000381979305275e+00  1.0117598174308997e+00  1.0391667615373048e+00  1.0431464992981312e+00  1.0544463929453691e+00  1.0054690163435882e+00  1.0005271885815950e+00  1.0000346611799935e+00  1.0000154292183889e+00  1.0000127184080008e+00  1.0000195896856821e+00  1.0000574421323247e+00  1.0004879894238203e+00  1.0043118408012901e+00  1.0005893788499538e+00  1.0001149160630178e+00  1.0000425372054980e+00  1.0000282479682518e+00  1.0000317026246170e+00  1.0000655413576800e+00  1.0002631547986065e+00  </DataArray> 
</PointData> 
</Piece>
</UnstructuredGrid>
</VTKFile>