<?xml version="1.0"?>
<VTKFile type="UnstructuredGrid"  version="0.1"  >
<UnstructuredGrid>
<Piece  NumberOfPoints="72" NumberOfCells="112">
<Points>
<DataArray  type="Float64"  NumberOfComponents="3"  format="ascii">0 0 0  1 0 0  2 0 0  3 0 0  4 0 0  5 0 0  6 0 0  7 0 0  0 1 0  1 1 0  2 1 0  3 1 0  4 1 0  5 1 0  6 1 0  7 1 0  0 2 0  1 2 0  2 2 0  3 2 0  4 2 0  5 2 0  6 2 0  7 2 0  0 3 0  1 3 0  2 3 0  3 3 0  4 3 0  5 3 0  6 3 0  7 3 0  0 4 0  1 4 0  2 4 0  3 4 0  4 4 0  5 4 0  6 4 0  7 4 0  0 5 0  1 5 0  2 5 0  3 5 0  4 5 0  5 5 0  6 5 0  7 5 0  0 6 0  1 6 0  2 6 0  3 6 0  4 6 0  5 6 0  6 6 0  7 6 0  0 7 0  1 7 0  2 7 0  3 7 0  4 7 0  5 7 0  6 7 0  7 7 0  0 8 0  1 8 0  2 8 0  3 8 0  4 8 0  5 8 0  6 8 0  7 8 0  </DataArray>
</Points>
<Cells>
<DataArray  type="UInt32"  Name="connectivity"  format="ascii">0 8 9  0 1 9  1 9 10  1 2 10  2 10 11  2 3 11  3 11 12  3 4 12  4 12 13  4 5 13  5 13 14  5 6 14  6 14 15  6 7 15  8 16 17  8 9 17  9 17 18  9 10 18  10 18 19  10 11 19  11 19 20  11 12 20  12 20 21  12 13 21  13 21 22  13 14 22  14 22 23  14 15 23  16 24 25  16 17 25  17 25 26  17 18 26  18 26 27  18 19 27  19 27 28  19 20 28  20 28 29  20 21 29  21 29 30  21 22 30  22 30 31  22 23 31  24 32 33  24 25 33  25 33 34  25 26 34  26 34 35  26 27 35  27 35 36  27 28 36  28 36 37  28 29 37  29 37 38  29 30 38  30 38 39  30 31 39  32 40 41  32 33 41  33 41 42  33 34 42  34 42 43  34 35 43  35 43 44  35 36 44  36 44 45  36 37 45  37 45 46  37 38 46  38 46 47  38 39 47  40 48 49  40 41 49  41 49 50  41 42 50  42 50 51  42 43 51  43 51 52  43 44 52  44 52 53  44 45 53  45 53 54  45 46 54  46 54 55  46 47 55  48 56 57  48 49 57  49 57 58  49 50 58  50 58 59  50 51 59  51 59 60  51 52 60  52 60 61  52 53 61  53 61 62  53 54 62  54 62 63  54 55 63  56 64 65  56 57 65  57 65 66  57 58 66  58 66 67  58 59 67  59 67 68  59 60 68  60 68 69  60 61 69  61 69 70  61 62 70  62 70 71  62 63 71  </DataArray>
<DataArray  type="UInt32"  Name="offsets"  format="ascii">3 6 9 12 15 18 21 24 27 30 33 36 39 42 45 48 51 54 57 60 63 66 69 72 75 78 81 84 87 90 93 96 99 102 105 108 111 114 117 120 123 126 129 132 135 138 141 144 147 150 153 156 159 162 165 168 171 174 177 180 183 186 189 192 195 198 201 204 207 210 213 216 219 222 225 228 231 234 237 240 243 246 249 252 255 258 261 264 267 270 273 276 279 282 285 288 291 294 297 300 303 306 309 312 315 318 321 324 327 330 333 336 </DataArray>
<DataArray  type="UInt8"  Name="types"  format="ascii">5 5 5 5 5 5 5 5 5 5 5 5 5 5 5 5 5 5 5 5 5 5 5 5 5 5 5 5 5 5 5 5 5 5 5 5 5 5 5 5 5 5 5 5 5 5 5 5 5 5 5 5 5 5 5 5 5 5 5 5 5 5 5 5 5 5 5 5 5 5 5 5 5 5 5 5 5 5 5 5 5 5 5 5 5 5 5 5 5 5 5 5 5 5 5 5 5 5 5 5 5 5 5 5 5 5 5 5 5 5 5 5 </DataArray>
</Cells>
<PointData  Scalars="ControlVisualization"> 
<DataArray  type="Float64"  Name="ControlVisualization"  format="ascii">1.0856413799240432e+00  1.0856414273542092e+00  1.0856413438217036e+00  1.0856412825659267e+00  1.0856413072763935e+00  1.0856413712784805e+00  1.0856413763279744e+00  1.0856413643273881e+00  1.0856413185697280e+00  1.0856414952653646e+00  1.0856414504775469e+00  1.0856412959306472e+00  1.0856412532647044e+00  1.0856413201646413e+00  1.0856413407606311e+00  1.0856413506213674e+00  1.0856412213211268e+00  1.0856413586712235e+00  1.0856416195985887e+00  1.0856415179477223e+00  1.0856414014636604e+00  1.0856413455603851e+00  1.0856413033951953e+00  1.0856413160356797e+00  1.0856412596734859e+00  1.0856412060019824e+00  1.0856415843801002e+00  1.0856417661945306e+00  1.0856416593076728e+00  1.0856414765876197e+00  1.0856413569700389e+00  1.0856413341498927e+00  1.0856413093667148e+00  1.0856412259984716e+00  1.0856413817242658e+00  1.0856416514452487e+00  1.0856417095534898e+00  1.0856415565369590e+00  1.0856414133035879e+00  1.0856413659804387e+00  1.0856413327955403e+00  1.0856412744611921e+00  1.0856412624244880e+00  1.0856413684642092e+00  1.0856414799029701e+00  1.0856414607651563e+00  1.0856413820070809e+00  1.0856413627286128e+00  1.0856413427791725e+00  1.0856412997610756e+00  1.0856412369920738e+00  1.0856412025601967e+00  1.0856412459206424e+00  1.0856413089642680e+00  1.0856413211608607e+00  1.0856413396064033e+00  1.0856413501028406e+00  1.0856413104250038e+00  1.0856412504990107e+00  1.0856411804016088e+00  1.0856411640464472e+00  1.0856412214182776e+00  1.0856412927518573e+00  1.0856413350595897e+00  1.0856413643273881e+00  1.0856413490062398e+00  1.0856413234603439e+00  1.0856412880466459e+00  1.0856412659797152e+00  1.0856412760629821e+00  1.0856413136664362e+00  1.0856413469842436e+00  </DataArray> 
</PointData> 
</Piece>
</UnstructuredGrid>
</VTKFile>