<?xml version="1.0"?>
<VTKFile type="UnstructuredGrid"  version="0.1"  >
<UnstructuredGrid>
<Piece  NumberOfPoints="72" NumberOfCells="112">
<Points>
<DataArray  type="Float64"  NumberOfComponents="3"  format="ascii">0 0 0  1 0 0  2 0 0  3 0 0  4 0 0  5 0 0  6 0 0  7 0 0  0 1 0  1 1 0  2 1 0  3 1 0  4 1 0  5 1 0  6 1 0  7 1 0  0 2 0  1 2 0  2 2 0  3 2 0  4 2 0  5 2 0  6 2 0  7 2 0  0 3 0  1 3 0  2 3 0  3 3 0  4 3 0  5 3 0  6 3 0  7 3 0  0 4 0  1 4 0  2 4 0  3 4 0  4 4 0  5 4 0  6 4 0  7 4 0  0 5 0  1 5 0  2 5 0  3 5 0  4 5 0  5 5 0  6 5 0  7 5 0  0 6 0  1 6 0  2 6 0  3 6 0  4 6 0  5 6 0  6 6 0  7 6 0  0 7 0  1 7 0  2 7 0  3 7 0  4 7 0  5 7 0  6 7 0  7 7 0  0 8 0  1 8 0  2 8 0  3 8 0  4 8 0  5 8 0  6 8 0  7 8 0  </DataArray>
</Points>
<Cells>
<DataArray  type="UInt32"  Name="connectivity"  format="ascii">0 8 9  0 1 9  1 9 10  1 2 10  2 10 11  2 3 11  3 11 12  3 4 12  4 12 13  4 5 13  5 13 14  5 6 14  6 14 15  6 7 15  8 16 17  8 9 17  9 17 18  9 10 18  10 18 19  10 11 19  11 19 20  11 12 20  12 20 21  12 13 21  13 21 22  13 14 22  14 22 23  14 15 23  16 24 25  16 17 25  17 25 26  17 18 26  18 26 27  18 19 27  19 27 28  19 20 28  20 28 29  20 21 29  21 29 30  21 22 30  22 30 31  22 23 31  24 32 33  24 25 33  25 33 34  25 26 34  26 34 35  26 27 35  27 35 36  27 28 36  28 36 37  28 29 37  29 37 38  29 30 38  30 38 39  30 31 39  32 40 41  32 33 41  33 41 42  33 34 42  34 42 43  34 35 43  35 43 44  35 36 44  36 44 45  36 37 45  37 45 46  37 38 46  38 46 47  38 39 47  40 48 49  40 41 49  41 49 50  41 42 50  42 50 51  42 43 51  43 51 52  43 44 52  44 52 53  44 45 53  45 53 54  45 46 54  46 54 55  46 47 55  48 56 57  48 49 57  49 57 58  49 50 58  50 58 59  50 51 59  51 59 60  51 52 60  52 60 61  52 53 61  53 61 62  53 54 62  54 62 63  54 55 63  56 64 65  56 57 65  57 65 66  57 58 66  58 66 67  58 59 67  59 67 68  59 60 68  60 68 69  60 61 69  61 69 70  61 62 70  62 70 71  62 63 71  </DataArray>
<DataArray  type="UInt32"  Name="offsets"  format="ascii">3 6 9 12 15 18 21 24 27 30 33 36 39 42 45 48 51 54 57 60 63 66 69 72 75 78 81 84 87 90 93 96 99 102 105 108 111 114 117 120 123 126 129 132 135 138 141 144 147 150 153 156 159 162 165 168 171 174 177 180 183 186 189 192 195 198 201 204 207 210 213 216 219 222 225 228 231 234 237 240 243 246 249 252 255 258 261 264 267 270 273 276 279 282 285 288 291 294 297 300 303 306 309 312 315 318 321 324 327 330 333 336 </DataArray>
<DataArray  type="UInt8"  Name="types"  format="ascii">5 5 5 5 5 5 5 5 5 5 5 5 5 5 5 5 5 5 5 5 5 5 5 5 5 5 5 5 5 5 5 5 5 5 5 5 5 5 5 5 5 5 5 5 5 5 5 5 5 5 5 5 5 5 5 5 5 5 5 5 5 5 5 5 5 5 5 5 5 5 5 5 5 5 5 5 5 5 5 5 5 5 5 5 5 5 5 5 5 5 5 5 5 5 5 5 5 5 5 5 5 5 5 5 5 5 5 5 5 5 5 5 </DataArray>
</Cells>
<PointData  Scalars="ControlVisualization"> 
<DataArray  type="Float64"  Name="ControlVisualization"  format="ascii">6.5867759458829687e+00  7.1152208630063010e+00  7.3692090247763247e+00  7.5157234599261287e+00  7.5960459232869981e+00  7.6720659650470262e+00  7.3933527007396780e+00  7.1823662072646908e+00  6.0672504204631963e+00  6.6189149015154891e+00  7.2554053377697612e+00  7.3599518904191168e+00  7.4819287352322021e+00  7.3960449527053065e+00  7.0547035684207113e+00  6.7801182520186858e+00  5.6791882475230766e+00  6.0366551904492294e+00  6.6842973445286580e+00  7.1406394164122693e+00  7.0835273236214862e+00  6.7864186654136756e+00  6.2199830587225717e+00  5.9534530247783106e+00  5.2544004032587264e+00  5.5075912546483261e+00  6.0099303134772786e+00  6.3527153555578044e+00  6.4163891096468095e+00  6.0049302696548663e+00  5.6080900810009480e+00  5.2145718951894251e+00  4.8073532405862647e+00  4.9006343123974831e+00  5.2115588445956833e+00  5.6739022351337560e+00  5.5890305265136124e+00  5.3903868131171357e+00  4.8524414967046097e+00  4.6246263656330422e+00  4.3518882598311261e+00  4.3265317737472699e+00  4.5527762844177300e+00  4.5917108051180477e+00  4.6486967122883014e+00  4.5010842075266089e+00  4.2489641694766123e+00  4.0817278124401719e+00  4.0011972749675691e+00  3.9707307863906012e+00  3.8694430792083980e+00  3.7140992595711748e+00  3.7214001201820612e+00  3.7347980934157285e+00  3.6714470626782916e+00  3.6413415247774181e+00  3.8333021926458528e+00  3.7289065862769739e+00  3.5048572267132183e+00  3.3363115012208477e+00  3.1951420021323620e+00  3.2440752323271158e+00  3.3267475768469579e+00  3.3576741424950733e+00  3.8221496339910379e+00  3.6862612697530439e+00  3.4687269993449368e+00  3.2365972585771314e+00  3.1048025577002631e+00  3.0919895425226138e+00  3.1987120053931468e+00  3.2800831923638745e+00  </DataArray> 
</PointData> 
</Piece>
</UnstructuredGrid>
</VTKFile>