<?xml version="1.0"?>
<VTKFile type="UnstructuredGrid"  version="0.1"  >
<UnstructuredGrid>
<Piece  NumberOfPoints="72" NumberOfCells="112">
<Points>
<DataArray  type="Float64"  NumberOfComponents="3"  format="ascii">0 0 0  1 0 0  2 0 0  3 0 0  4 0 0  5 0 0  6 0 0  7 0 0  0 1 0  1 1 0  2 1 0  3 1 0  4 1 0  5 1 0  6 1 0  7 1 0  0 2 0  1 2 0  2 2 0  3 2 0  4 2 0  5 2 0  6 2 0  7 2 0  0 3 0  1 3 0  2 3 0  3 3 0  4 3 0  5 3 0  6 3 0  7 3 0  0 4 0  1 4 0  2 4 0  3 4 0  4 4 0  5 4 0  6 4 0  7 4 0  0 5 0  1 5 0  2 5 0  3 5 0  4 5 0  5 5 0  6 5 0  7 5 0  0 6 0  1 6 0  2 6 0  3 6 0  4 6 0  5 6 0  6 6 0  7 6 0  0 7 0  1 7 0  2 7 0  3 7 0  4 7 0  5 7 0  6 7 0  7 7 0  0 8 0  1 8 0  2 8 0  3 8 0  4 8 0  5 8 0  6 8 0  7 8 0  </DataArray>
</Points>
<Cells>
<DataArray  type="UInt32"  Name="connectivity"  format="ascii">0 8 9  0 1 9  1 9 10  1 2 10  2 10 11  2 3 11  3 11 12  3 4 12  4 12 13  4 5 13  5 13 14  5 6 14  6 14 15  6 7 15  8 16 17  8 9 17  9 17 18  9 10 18  10 18 19  10 11 19  11 19 20  11 12 20  12 20 21  12 13 21  13 21 22  13 14 22  14 22 23  14 15 23  16 24 25  16 17 25  17 25 26  17 18 26  18 26 27  18 19 27  19 27 28  19 20 28  20 28 29  20 21 29  21 29 30  21 22 30  22 30 31  22 23 31  24 32 33  24 25 33  25 33 34  25 26 34  26 34 35  26 27 35  27 35 36  27 28 36  28 36 37  28 29 37  29 37 38  29 30 38  30 38 39  30 31 39  32 40 41  32 33 41  33 41 42  33 34 42  34 42 43  34 35 43  35 43 44  35 36 44  36 44 45  36 37 45  37 45 46  37 38 46  38 46 47  38 39 47  40 48 49  40 41 49  41 49 50  41 42 50  42 50 51  42 43 51  43 51 52  43 44 52  44 52 53  44 45 53  45 53 54  45 46 54  46 54 55  46 47 55  48 56 57  48 49 57  49 57 58  49 50 58  50 58 59  50 51 59  51 59 60  51 52 60  52 60 61  52 53 61  53 61 62  53 54 62  54 62 63  54 55 63  56 64 65  56 57 65  57 65 66  57 58 66  58 66 67  58 59 67  59 67 68  59 60 68  60 68 69  60 61 69  61 69 70  61 62 70  62 70 71  62 63 71  </DataArray>
<DataArray  type="UInt32"  Name="offsets"  format="ascii">3 6 9 12 15 18 21 24 27 30 33 36 39 42 45 48 51 54 57 60 63 66 69 72 75 78 81 84 87 90 93 96 99 102 105 108 111 114 117 120 123 126 129 132 135 138 141 144 147 150 153 156 159 162 165 168 171 174 177 180 183 186 189 192 195 198 201 204 207 210 213 216 219 222 225 228 231 234 237 240 243 246 249 252 255 258 261 264 267 270 273 276 279 282 285 288 291 294 297 300 303 306 309 312 315 318 321 324 327 330 333 336 </DataArray>
<DataArray  type="UInt8"  Name="types"  format="ascii">5 5 5 5 5 5 5 5 5 5 5 5 5 5 5 5 5 5 5 5 5 5 5 5 5 5 5 5 5 5 5 5 5 5 5 5 5 5 5 5 5 5 5 5 5 5 5 5 5 5 5 5 5 5 5 5 5 5 5 5 5 5 5 5 5 5 5 5 5 5 5 5 5 5 5 5 5 5 5 5 5 5 5 5 5 5 5 5 5 5 5 5 5 5 5 5 5 5 5 5 5 5 5 5 5 5 5 5 5 5 5 5 </DataArray>
</Cells>
<PointData  Scalars="ControlVisualization"> 
<DataArray  type="Float64"  Name="ControlVisualization"  format="ascii">6.7958791583641887e+00  7.2969644774256484e+00  7.6793710859723010e+00  7.5799170726817522e+00  7.8969167159214804e+00  7.8392342834438686e+00  7.7936332923153149e+00  7.6724089326781506e+00  6.6697704162191638e+00  7.0518360451961648e+00  6.7850261390455850e+00  6.9140403041798546e+00  6.2489964057086640e+00  7.5934566615159058e+00  7.2801674641108152e+00  7.5727738313379618e+00  6.3270752776432015e+00  6.4345569240689153e+00  7.0868203072606377e+00  6.5527534913082395e+00  7.7039661589764679e+00  6.3545258073447126e+00  6.9786267006251492e+00  6.7325199823240531e+00  5.6739697874853352e+00  6.3164669967438281e+00  6.0368800885700020e+00  6.5898330961044262e+00  6.0003978507336404e+00  6.2958638174335544e+00  5.9248731596137549e+00  5.8923753317587826e+00  5.0654936419561372e+00  5.3460837101857530e+00  4.6024262658226487e+00  5.3996319297684359e+00  5.4527668508689944e+00  4.8783790808655212e+00  5.1891411428332912e+00  4.9805030199857123e+00  4.3998553826680045e+00  3.8306256092713893e+00  4.4479374255074422e+00  4.3783697644659938e+00  4.5678263519057944e+00  4.2493072692688978e+00  3.9910158554436328e+00  3.8898045590384656e+00  3.4275134252435633e+00  3.7418856764764028e+00  3.3038984187490836e+00  3.6772678477401461e+00  3.5017884892554654e+00  3.2707716099011486e+00  3.0869571271221075e+00  2.9435841231608153e+00  3.0295328193129389e+00  2.9846012864967104e+00  3.0850598975220720e+00  2.8177937498118517e+00  2.7351734072318488e+00  2.5568587118089718e+00  2.5045704486044844e+00  2.3991278344868663e+00  3.0123762541657877e+00  2.8840034789806976e+00  2.7071576012598810e+00  2.4682083477466552e+00  2.2527290743862700e+00  2.2386726738455849e+00  2.2467159019807594e+00  2.2832309742144865e+00  </DataArray> 
</PointData> 
</Piece>
</UnstructuredGrid>
</VTKFile>