<?xml version="1.0"?>
<VTKFile type="UnstructuredGrid"  version="0.1"  >
<UnstructuredGrid>
<Piece  NumberOfPoints="72" NumberOfCells="112">
<Points>
<DataArray  type="Float64"  NumberOfComponents="3"  format="ascii">0 0 0  1 0 0  2 0 0  3 0 0  4 0 0  5 0 0  6 0 0  7 0 0  0 1 0  1 1 0  2 1 0  3 1 0  4 1 0  5 1 0  6 1 0  7 1 0  0 2 0  1 2 0  2 2 0  3 2 0  4 2 0  5 2 0  6 2 0  7 2 0  0 3 0  1 3 0  2 3 0  3 3 0  4 3 0  5 3 0  6 3 0  7 3 0  0 4 0  1 4 0  2 4 0  3 4 0  4 4 0  5 4 0  6 4 0  7 4 0  0 5 0  1 5 0  2 5 0  3 5 0  4 5 0  5 5 0  6 5 0  7 5 0  0 6 0  1 6 0  2 6 0  3 6 0  4 6 0  5 6 0  6 6 0  7 6 0  0 7 0  1 7 0  2 7 0  3 7 0  4 7 0  5 7 0  6 7 0  7 7 0  0 8 0  1 8 0  2 8 0  3 8 0  4 8 0  5 8 0  6 8 0  7 8 0  </DataArray>
</Points>
<Cells>
<DataArray  type="UInt32"  Name="connectivity"  format="ascii">0 8 9  0 1 9  1 9 10  1 2 10  2 10 11  2 3 11  3 11 12  3 4 12  4 12 13  4 5 13  5 13 14  5 6 14  6 14 15  6 7 15  8 16 17  8 9 17  9 17 18  9 10 18  10 18 19  10 11 19  11 19 20  11 12 20  12 20 21  12 13 21  13 21 22  13 14 22  14 22 23  14 15 23  16 24 25  16 17 25  17 25 26  17 18 26  18 26 27  18 19 27  19 27 28  19 20 28  20 28 29  20 21 29  21 29 30  21 22 30  22 30 31  22 23 31  24 32 33  24 25 33  25 33 34  25 26 34  26 34 35  26 27 35  27 35 36  27 28 36  28 36 37  28 29 37  29 37 38  29 30 38  30 38 39  30 31 39  32 40 41  32 33 41  33 41 42  33 34 42  34 42 43  34 35 43  35 43 44  35 36 44  36 44 45  36 37 45  37 45 46  37 38 46  38 46 47  38 39 47  40 48 49  40 41 49  41 49 50  41 42 50  42 50 51  42 43 51  43 51 52  43 44 52  44 52 53  44 45 53  45 53 54  45 46 54  46 54 55  46 47 55  48 56 57  48 49 57  49 57 58  49 50 58  50 58 59  50 51 59  51 59 60  51 52 60  52 60 61  52 53 61  53 61 62  53 54 62  54 62 63  54 55 63  56 64 65  56 57 65  57 65 66  57 58 66  58 66 67  58 59 67  59 67 68  59 60 68  60 68 69  60 61 69  61 69 70  61 62 70  62 70 71  62 63 71  </DataArray>
<DataArray  type="UInt32"  Name="offsets"  format="ascii">3 6 9 12 15 18 21 24 27 30 33 36 39 42 45 48 51 54 57 60 63 66 69 72 75 78 81 84 87 90 93 96 99 102 105 108 111 114 117 120 123 126 129 132 135 138 141 144 147 150 153 156 159 162 165 168 171 174 177 180 183 186 189 192 195 198 201 204 207 210 213 216 219 222 225 228 231 234 237 240 243 246 249 252 255 258 261 264 267 270 273 276 279 282 285 288 291 294 297 300 303 306 309 312 315 318 321 324 327 330 333 336 </DataArray>
<DataArray  type="UInt8"  Name="types"  format="ascii">5 5 5 5 5 5 5 5 5 5 5 5 5 5 5 5 5 5 5 5 5 5 5 5 5 5 5 5 5 5 5 5 5 5 5 5 5 5 5 5 5 5 5 5 5 5 5 5 5 5 5 5 5 5 5 5 5 5 5 5 5 5 5 5 5 5 5 5 5 5 5 5 5 5 5 5 5 5 5 5 5 5 5 5 5 5 5 5 5 5 5 5 5 5 5 5 5 5 5 5 5 5 5 5 5 5 5 5 5 5 5 5 </DataArray>
</Cells>
<PointData  Scalars="ControlVisualization"> 
<DataArray  type="Float64"  Name="ControlVisualization"  format="ascii">4.0134518534671901e+00  3.9265137757094224e+00  3.6272733289969166e+00  4.0829365250314229e+00  4.2944250226189293e+00  4.3433462452073899e+00  4.2145400387362848e+00  4.4232484691950553e+00  3.1150284407426017e+00  3.2282768006735023e+00  4.1562710192966135e+00  3.2006635946014108e+00  3.5274407876292928e+00  3.6680635097306538e+00  4.0931295967791428e+00  3.5598270098158689e+00  2.6822721963275664e+00  2.2656480919315949e+00  3.2265243756793640e+00  3.5796869317306941e+00  3.3411970970783620e+00  3.6197727909105146e+00  2.9253031001603240e+00  2.7736614242929054e+00  2.0342934753289326e+00  2.6858091368861663e+00  3.0030758271933853e+00  3.5994732177596860e+00  3.7675545505352845e+00  3.2200291012676252e+00  2.0527661378261808e+00  2.2928356423856009e+00  1.9410729709575549e+00  2.4020483880088239e+00  3.0020868585350655e+00  2.5009140955934290e+00  3.2780444079541868e+00  2.5864320772260485e+00  3.1847141417135281e+00  1.8449682579683127e+00  2.0347933162371996e+00  2.4744465495785497e+00  1.5314447125866968e+00  3.0634204577539359e+00  2.6951935194152554e+00  2.4672287630701319e+00  2.1649867800426650e+00  2.2377845233726448e+00  2.1033586072559354e+00  1.7211582078907806e+00  2.0503406709918783e+00  2.2738688858418010e+00  1.5081202517671435e+00  2.3616046876131209e+00  1.9688800931256518e+00  2.0880622995514941e+00  1.7227248912737649e+00  1.7653088873879998e+00  2.2146476510548081e+00  1.0000015728504739e+00  2.3335881398168654e+00  1.6042006927855896e+00  1.7640209991772138e+00  1.6862869967291023e+00  1.4653399657723996e+00  1.6440977482096677e+00  1.5943363158539841e+00  1.9543864079727471e+00  1.5211682933373296e+00  1.6188383354993339e+00  1.5225070992213934e+00  1.3283217735751682e+00  </DataArray> 
</PointData> 
</Piece>
</UnstructuredGrid>
</VTKFile>