<?xml version="1.0"?>
<VTKFile type="UnstructuredGrid"  version="0.1"  >
<UnstructuredGrid>
<Piece  NumberOfPoints="72" NumberOfCells="112">
<Points>
<DataArray  type="Float64"  NumberOfComponents="3"  format="ascii">0 0 0  1 0 0  2 0 0  3 0 0  4 0 0  5 0 0  6 0 0  7 0 0  0 1 0  1 1 0  2 1 0  3 1 0  4 1 0  5 1 0  6 1 0  7 1 0  0 2 0  1 2 0  2 2 0  3 2 0  4 2 0  5 2 0  6 2 0  7 2 0  0 3 0  1 3 0  2 3 0  3 3 0  4 3 0  5 3 0  6 3 0  7 3 0  0 4 0  1 4 0  2 4 0  3 4 0  4 4 0  5 4 0  6 4 0  7 4 0  0 5 0  1 5 0  2 5 0  3 5 0  4 5 0  5 5 0  6 5 0  7 5 0  0 6 0  1 6 0  2 6 0  3 6 0  4 6 0  5 6 0  6 6 0  7 6 0  0 7 0  1 7 0  2 7 0  3 7 0  4 7 0  5 7 0  6 7 0  7 7 0  0 8 0  1 8 0  2 8 0  3 8 0  4 8 0  5 8 0  6 8 0  7 8 0  </DataArray>
</Points>
<Cells>
<DataArray  type="UInt32"  Name="connectivity"  format="ascii">0 8 9  0 1 9  1 9 10  1 2 10  2 10 11  2 3 11  3 11 12  3 4 12  4 12 13  4 5 13  5 13 14  5 6 14  6 14 15  6 7 15  8 16 17  8 9 17  9 17 18  9 10 18  10 18 19  10 11 19  11 19 20  11 12 20  12 20 21  12 13 21  13 21 22  13 14 22  14 22 23  14 15 23  16 24 25  16 17 25  17 25 26  17 18 26  18 26 27  18 19 27  19 27 28  19 20 28  20 28 29  20 21 29  21 29 30  21 22 30  22 30 31  22 23 31  24 32 33  24 25 33  25 33 34  25 26 34  26 34 35  26 27 35  27 35 36  27 28 36  28 36 37  28 29 37  29 37 38  29 30 38  30 38 39  30 31 39  32 40 41  32 33 41  33 41 42  33 34 42  34 42 43  34 35 43  35 43 44  35 36 44  36 44 45  36 37 45  37 45 46  37 38 46  38 46 47  38 39 47  40 48 49  40 41 49  41 49 50  41 42 50  42 50 51  42 43 51  43 51 52  43 44 52  44 52 53  44 45 53  45 53 54  45 46 54  46 54 55  46 47 55  48 56 57  48 49 57  49 57 58  49 50 58  50 58 59  50 51 59  51 59 60  51 52 60  52 60 61  52 53 61  53 61 62  53 54 62  54 62 63  54 55 63  56 64 65  56 57 65  57 65 66  57 58 66  58 66 67  58 59 67  59 67 68  59 60 68  60 68 69  60 61 69  61 69 70  61 62 70  62 70 71  62 63 71  </DataArray>
<DataArray  type="UInt32"  Name="offsets"  format="ascii">3 6 9 12 15 18 21 24 27 30 33 36 39 42 45 48 51 54 57 60 63 66 69 72 75 78 81 84 87 90 93 96 99 102 105 108 111 114 117 120 123 126 129 132 135 138 141 144 147 150 153 156 159 162 165 168 171 174 177 180 183 186 189 192 195 198 201 204 207 210 213 216 219 222 225 228 231 234 237 240 243 246 249 252 255 258 261 264 267 270 273 276 279 282 285 288 291 294 297 300 303 306 309 312 315 318 321 324 327 330 333 336 </DataArray>
<DataArray  type="UInt8"  Name="types"  format="ascii">5 5 5 5 5 5 5 5 5 5 5 5 5 5 5 5 5 5 5 5 5 5 5 5 5 5 5 5 5 5 5 5 5 5 5 5 5 5 5 5 5 5 5 5 5 5 5 5 5 5 5 5 5 5 5 5 5 5 5 5 5 5 5 5 5 5 5 5 5 5 5 5 5 5 5 5 5 5 5 5 5 5 5 5 5 5 5 5 5 5 5 5 5 5 5 5 5 5 5 5 5 5 5 5 5 5 5 5 5 5 5 5 </DataArray>
</Cells>
<PointData  Scalars="ControlVisualization"> 
<DataArray  type="Float64"  Name="ControlVisualization"  format="ascii">6.5582140786687146e+00  6.9482600464631066e+00  7.1852685467657098e+00  7.1695748564293886e+00  7.3416067925083963e+00  7.4817440997507969e+00  7.3425868635522100e+00  7.1715481619372650e+00  6.0026212187844141e+00  6.4813400482075192e+00  6.8246014106300699e+00  7.1851554133180349e+00  7.1914396536699403e+00  7.1257500620628571e+00  6.7824065546228187e+00  6.7698909203817950e+00  5.5264598154546691e+00  5.9665787955056322e+00  6.4568873630871062e+00  6.6365781629228033e+00  6.5945635619881040e+00  6.4990415323096631e+00  6.2352676420234863e+00  5.8328811425130604e+00  5.1511246354397251e+00  5.1497701921509647e+00  5.9404376533744907e+00  6.1934635010975869e+00  6.2206917596141995e+00  5.9517634576284513e+00  5.3253589110315547e+00  5.0893111944630691e+00  4.6257261073623726e+00  4.7310611546996588e+00  5.0260178733566940e+00  5.3878653766992102e+00  5.3338796654824714e+00  5.1634732167077981e+00  4.6283115452901713e+00  4.5129826089626368e+00  4.1614405063646940e+00  4.1242337980305859e+00  4.3020373419531381e+00  4.1302465585752675e+00  4.4416531753454036e+00  4.1910015140415622e+00  4.0664112887385633e+00  3.9073959871031869e+00  3.7158410060712606e+00  3.7422965141796167e+00  3.4532365470166995e+00  3.6672059227707132e+00  3.4740584829976067e+00  3.4752518889706470e+00  3.3984900975651078e+00  3.3532317688745925e+00  3.4519475279507383e+00  3.3081079736372385e+00  3.2806612354431004e+00  3.0437530844396514e+00  2.9424228013957174e+00  2.9244373589626274e+00  2.9501461155548210e+00  2.9552698550119270e+00  3.3389912573311289e+00  3.2955580844535191e+00  3.0993049006394844e+00  2.8836874908572256e+00  2.7465567092956351e+00  2.7299766214025381e+00  2.7802403305940859e+00  2.7679808494429876e+00  </DataArray> 
</PointData> 
</Piece>
</UnstructuredGrid>
</VTKFile>