<?xml version="1.0"?>
<VTKFile type="UnstructuredGrid"  version="0.1"  >
<UnstructuredGrid>
<Piece  NumberOfPoints="72" NumberOfCells="112">
<Points>
<DataArray  type="Float64"  NumberOfComponents="3"  format="ascii">0 0 0  1 0 0  2 0 0  3 0 0  4 0 0  5 0 0  6 0 0  7 0 0  0 1 0  1 1 0  2 1 0  3 1 0  4 1 0  5 1 0  6 1 0  7 1 0  0 2 0  1 2 0  2 2 0  3 2 0  4 2 0  5 2 0  6 2 0  7 2 0  0 3 0  1 3 0  2 3 0  3 3 0  4 3 0  5 3 0  6 3 0  7 3 0  0 4 0  1 4 0  2 4 0  3 4 0  4 4 0  5 4 0  6 4 0  7 4 0  0 5 0  1 5 0  2 5 0  3 5 0  4 5 0  5 5 0  6 5 0  7 5 0  0 6 0  1 6 0  2 6 0  3 6 0  4 6 0  5 6 0  6 6 0  7 6 0  0 7 0  1 7 0  2 7 0  3 7 0  4 7 0  5 7 0  6 7 0  7 7 0  0 8 0  1 8 0  2 8 0  3 8 0  4 8 0  5 8 0  6 8 0  7 8 0  </DataArray>
</Points>
<Cells>
<DataArray  type="UInt32"  Name="connectivity"  format="ascii">0 8 9  0 1 9  1 9 10  1 2 10  2 10 11  2 3 11  3 11 12  3 4 12  4 12 13  4 5 13  5 13 14  5 6 14  6 14 15  6 7 15  8 16 17  8 9 17  9 17 18  9 10 18  10 18 19  10 11 19  11 19 20  11 12 20  12 20 21  12 13 21  13 21 22  13 14 22  14 22 23  14 15 23  16 24 25  16 17 25  17 25 26  17 18 26  18 26 27  18 19 27  19 27 28  19 20 28  20 28 29  20 21 29  21 29 30  21 22 30  22 30 31  22 23 31  24 32 33  24 25 33  25 33 34  25 26 34  26 34 35  26 27 35  27 35 36  27 28 36  28 36 37  28 29 37  29 37 38  29 30 38  30 38 39  30 31 39  32 40 41  32 33 41  33 41 42  33 34 42  34 42 43  34 35 43  35 43 44  35 36 44  36 44 45  36 37 45  37 45 46  37 38 46  38 46 47  38 39 47  40 48 49  40 41 49  41 49 50  41 42 50  42 50 51  42 43 51  43 51 52  43 44 52  44 52 53  44 45 53  45 53 54  45 46 54  46 54 55  46 47 55  48 56 57  48 49 57  49 57 58  49 50 58  50 58 59  50 51 59  51 59 60  51 52 60  52 60 61  52 53 61  53 61 62  53 54 62  54 62 63  54 55 63  56 64 65  56 57 65  57 65 66  57 58 66  58 66 67  58 59 67  59 67 68  59 60 68  60 68 69  60 61 69  61 69 70  61 62 70  62 70 71  62 63 71  </DataArray>
<DataArray  type="UInt32"  Name="offsets"  format="ascii">3 6 9 12 15 18 21 24 27 30 33 36 39 42 45 48 51 54 57 60 63 66 69 72 75 78 81 84 87 90 93 96 99 102 105 108 111 114 117 120 123 126 129 132 135 138 141 144 147 150 153 156 159 162 165 168 171 174 177 180 183 186 189 192 195 198 201 204 207 210 213 216 219 222 225 228 231 234 237 240 243 246 249 252 255 258 261 264 267 270 273 276 279 282 285 288 291 294 297 300 303 306 309 312 315 318 321 324 327 330 333 336 </DataArray>
<DataArray  type="UInt8"  Name="types"  format="ascii">5 5 5 5 5 5 5 5 5 5 5 5 5 5 5 5 5 5 5 5 5 5 5 5 5 5 5 5 5 5 5 5 5 5 5 5 5 5 5 5 5 5 5 5 5 5 5 5 5 5 5 5 5 5 5 5 5 5 5 5 5 5 5 5 5 5 5 5 5 5 5 5 5 5 5 5 5 5 5 5 5 5 5 5 5 5 5 5 5 5 5 5 5 5 5 5 5 5 5 5 5 5 5 5 5 5 5 5 5 5 5 5 </DataArray>
</Cells>
<PointData  Scalars="ControlVisualization"> 
<DataArray  type="Float64"  Name="ControlVisualization"  format="ascii">1.0457903596494385e+00  1.1163409234850143e+00  1.0780830083097637e+00  1.0002912327583136e+00  1.1127076675140943e+00  1.2773975826164923e+00  1.2612215303466296e+00  1.2161906487755794e+00  1.0214884825343733e+00  1.1204676842121737e+00  1.1972192912012087e+00  1.1413949044516458e+00  1.1653171449777069e+00  1.2559263193665915e+00  1.2197319111516431e+00  1.1708737980498862e+00  1.0254340792591716e+00  1.1355604424268493e+00  1.4167885157412841e+00  1.5199308167498058e+00  1.4476503391228712e+00  1.3062058410573549e+00  1.1423871280210662e+00  1.0583463886384596e+00  1.1026036350383874e+00  1.1463460777261358e+00  1.5088618422344358e+00  1.8461753613731877e+00  1.8034564880683106e+00  1.4829984355236590e+00  1.1762084447040408e+00  1.0542684221036072e+00  1.1626078033702334e+00  1.1471705783297550e+00  1.3491791360209235e+00  1.7342264566026553e+00  1.8167981376867721e+00  1.5513208240254672e+00  1.2621669302393776e+00  1.1545019452134655e+00  1.1248256142493840e+00  1.0983120851052053e+00  1.1058480541068121e+00  1.2969321413735886e+00  1.4211486294242770e+00  1.3331906858556806e+00  1.1975637587604753e+00  1.1594432589400916e+00  1.0484977660577690e+00  1.0337983387302048e+00  1.0000452563587050e+00  1.0000341220420208e+00  1.0116002500006291e+00  1.0389676083265091e+00  1.0423875961731444e+00  1.0535576497434824e+00  1.0053656779358184e+00  1.0004684298262858e+00  1.0000310260481098e+00  1.0000137797387663e+00  1.0000113550039633e+00  1.0000174687179271e+00  1.0000512178741285e+00  1.0004194560058293e+00  1.0040028980748175e+00  1.0005078487433399e+00  1.0001028303583437e+00  1.0000380003526692e+00  1.0000252219356227e+00  1.0000282996870116e+00  1.0000584818457772e+00  1.0002330911836135e+00  </DataArray> 
</PointData> 
</Piece>
</UnstructuredGrid>
</VTKFile>