<?xml version="1.0"?>
<VTKFile type="UnstructuredGrid"  version="0.1"  >
<UnstructuredGrid>
<Piece  NumberOfPoints="72" NumberOfCells="112">
<Points>
<DataArray  type="Float64"  NumberOfComponents="3"  format="ascii">0 0 0  1 0 0  2 0 0  3 0 0  4 0 0  5 0 0  6 0 0  7 0 0  0 1 0  1 1 0  2 1 0  3 1 0  4 1 0  5 1 0  6 1 0  7 1 0  0 2 0  1 2 0  2 2 0  3 2 0  4 2 0  5 2 0  6 2 0  7 2 0  0 3 0  1 3 0  2 3 0  3 3 0  4 3 0  5 3 0  6 3 0  7 3 0  0 4 0  1 4 0  2 4 0  3 4 0  4 4 0  5 4 0  6 4 0  7 4 0  0 5 0  1 5 0  2 5 0  3 5 0  4 5 0  5 5 0  6 5 0  7 5 0  0 6 0  1 6 0  2 6 0  3 6 0  4 6 0  5 6 0  6 6 0  7 6 0  0 7 0  1 7 0  2 7 0  3 7 0  4 7 0  5 7 0  6 7 0  7 7 0  0 8 0  1 8 0  2 8 0  3 8 0  4 8 0  5 8 0  6 8 0  7 8 0  </DataArray>
</Points>
<Cells>
<DataArray  type="UInt32"  Name="connectivity"  format="ascii">0 8 9  0 1 9  1 9 10  1 2 10  2 10 11  2 3 11  3 11 12  3 4 12  4 12 13  4 5 13  5 13 14  5 6 14  6 14 15  6 7 15  8 16 17  8 9 17  9 17 18  9 10 18  10 18 19  10 11 19  11 19 20  11 12 20  12 20 21  12 13 21  13 21 22  13 14 22  14 22 23  14 15 23  16 24 25  16 17 25  17 25 26  17 18 26  18 26 27  18 19 27  19 27 28  19 20 28  20 28 29  20 21 29  21 29 30  21 22 30  22 30 31  22 23 31  24 32 33  24 25 33  25 33 34  25 26 34  26 34 35  26 27 35  27 35 36  27 28 36  28 36 37  28 29 37  29 37 38  29 30 38  30 38 39  30 31 39  32 40 41  32 33 41  33 41 42  33 34 42  34 42 43  34 35 43  35 43 44  35 36 44  36 44 45  36 37 45  37 45 46  37 38 46  38 46 47  38 39 47  40 48 49  40 41 49  41 49 50  41 42 50  42 50 51  42 43 51  43 51 52  43 44 52  44 52 53  44 45 53  45 53 54  45 46 54  46 54 55  46 47 55  48 56 57  48 49 57  49 57 58  49 50 58  50 58 59  50 51 59  51 59 60  51 52 60  52 60 61  52 53 61  53 61 62  53 54 62  54 62 63  54 55 63  56 64 65  56 57 65  57 65 66  57 58 66  58 66 67  58 59 67  59 67 68  59 60 68  60 68 69  60 61 69  61 69 70  61 62 70  62 70 71  62 63 71  </DataArray>
<DataArray  type="UInt32"  Name="offsets"  format="ascii">3 6 9 12 15 18 21 24 27 30 33 36 39 42 45 48 51 54 57 60 63 66 69 72 75 78 81 84 87 90 93 96 99 102 105 108 111 114 117 120 123 126 129 132 135 138 141 144 147 150 153 156 159 162 165 168 171 174 177 180 183 186 189 192 195 198 201 204 207 210 213 216 219 222 225 228 231 234 237 240 243 246 249 252 255 258 261 264 267 270 273 276 279 282 285 288 291 294 297 300 303 306 309 312 315 318 321 324 327 330 333 336 </DataArray>
<DataArray  type="UInt8"  Name="types"  format="ascii">5 5 5 5 5 5 5 5 5 5 5 5 5 5 5 5 5 5 5 5 5 5 5 5 5 5 5 5 5 5 5 5 5 5 5 5 5 5 5 5 5 5 5 5 5 5 5 5 5 5 5 5 5 5 5 5 5 5 5 5 5 5 5 5 5 5 5 5 5 5 5 5 5 5 5 5 5 5 5 5 5 5 5 5 5 5 5 5 5 5 5 5 5 5 5 5 5 5 5 5 5 5 5 5 5 5 5 5 5 5 5 5 </DataArray>
</Cells>
<PointData  Scalars="ControlVisualization"> 
<DataArray  type="Float64"  Name="ControlVisualization"  format="ascii">5.9371087579280672e+00  6.2687935829051238e+00  6.2443463740046603e+00  6.1981366968921296e+00  6.2314383470624648e+00  6.2799297964460985e+00  6.0842574263492040e+00  5.9315071327332571e+00  5.6795859587184232e+00  6.1258243021574463e+00  6.4533212327430052e+00  6.4077458572411725e+00  6.3753066113408137e+00  6.3467037898349332e+00  6.0631271898303396e+00  5.8736781898438322e+00  5.6389900766703391e+00  5.7836997950537308e+00  6.3059558450577526e+00  6.3872571809685823e+00  6.3099885547943719e+00  6.1436092363217645e+00  5.8093366088595220e+00  5.6990641121781573e+00  5.6968860034598352e+00  5.6304105948559711e+00  6.0626267096686375e+00  6.3149436160018872e+00  6.2611222475662105e+00  6.0316525430143733e+00  5.7330345318222387e+00  5.6823027217730147e+00  5.7674511555952002e+00  5.6496706872955702e+00  5.8276532123021729e+00  6.0591840149838099e+00  6.1090643937994038e+00  5.9571750503867147e+00  5.7494847614153031e+00  5.7326380471858904e+00  5.8254120835223979e+00  5.7159905760709933e+00  5.7218004896529573e+00  5.7930720468949088e+00  5.8634954734990981e+00  5.8453815165362171e+00  5.7655289198974176e+00  5.7861753377444396e+00  5.8688892978249712e+00  5.7764690316643312e+00  5.7102066572566876e+00  5.6651715054863292e+00  5.6878995307069324e+00  5.7478284466784624e+00  5.7794066386228655e+00  5.8293932357377480e+00  5.8977899112298724e+00  5.8225290193565247e+00  5.7401506572415659e+00  5.6612502880997493e+00  5.6456952449069293e+00  5.7115028017200711e+00  5.8036557915804758e+00  5.8698350192022337e+00  5.9279730820392693e+00  5.8945920243679950e+00  5.8493322302742286e+00  5.7990564048852500e+00  5.7750353147797089e+00  5.7954943551862286e+00  5.8516463237262482e+00  5.9025336079734387e+00  </DataArray> 
</PointData> 
</Piece>
</UnstructuredGrid>
</VTKFile>