<?xml version="1.0"?>
<VTKFile type="UnstructuredGrid"  version="0.1"  >
<UnstructuredGrid>
<Piece  NumberOfPoints="72" NumberOfCells="112">
<Points>
<DataArray  type="Float64"  NumberOfComponents="3"  format="ascii">0 0 0  1 0 0  2 0 0  3 0 0  4 0 0  5 0 0  6 0 0  7 0 0  0 1 0  1 1 0  2 1 0  3 1 0  4 1 0  5 1 0  6 1 0  7 1 0  0 2 0  1 2 0  2 2 0  3 2 0  4 2 0  5 2 0  6 2 0  7 2 0  0 3 0  1 3 0  2 3 0  3 3 0  4 3 0  5 3 0  6 3 0  7 3 0  0 4 0  1 4 0  2 4 0  3 4 0  4 4 0  5 4 0  6 4 0  7 4 0  0 5 0  1 5 0  2 5 0  3 5 0  4 5 0  5 5 0  6 5 0  7 5 0  0 6 0  1 6 0  2 6 0  3 6 0  4 6 0  5 6 0  6 6 0  7 6 0  0 7 0  1 7 0  2 7 0  3 7 0  4 7 0  5 7 0  6 7 0  7 7 0  0 8 0  1 8 0  2 8 0  3 8 0  4 8 0  5 8 0  6 8 0  7 8 0  </DataArray>
</Points>
<Cells>
<DataArray  type="UInt32"  Name="connectivity"  format="ascii">0 8 9  0 1 9  1 9 10  1 2 10  2 10 11  2 3 11  3 11 12  3 4 12  4 12 13  4 5 13  5 13 14  5 6 14  6 14 15  6 7 15  8 16 17  8 9 17  9 17 18  9 10 18  10 18 19  10 11 19  11 19 20  11 12 20  12 20 21  12 13 21  13 21 22  13 14 22  14 22 23  14 15 23  16 24 25  16 17 25  17 25 26  17 18 26  18 26 27  18 19 27  19 27 28  19 20 28  20 28 29  20 21 29  21 29 30  21 22 30  22 30 31  22 23 31  24 32 33  24 25 33  25 33 34  25 26 34  26 34 35  26 27 35  27 35 36  27 28 36  28 36 37  28 29 37  29 37 38  29 30 38  30 38 39  30 31 39  32 40 41  32 33 41  33 41 42  33 34 42  34 42 43  34 35 43  35 43 44  35 36 44  36 44 45  36 37 45  37 45 46  37 38 46  38 46 47  38 39 47  40 48 49  40 41 49  41 49 50  41 42 50  42 50 51  42 43 51  43 51 52  43 44 52  44 52 53  44 45 53  45 53 54  45 46 54  46 54 55  46 47 55  48 56 57  48 49 57  49 57 58  49 50 58  50 58 59  50 51 59  51 59 60  51 52 60  52 60 61  52 53 61  53 61 62  53 54 62  54 62 63  54 55 63  56 64 65  56 57 65  57 65 66  57 58 66  58 66 67  58 59 67  59 67 68  59 60 68  60 68 69  60 61 69  61 69 70  61 62 70  62 70 71  62 63 71  </DataArray>
<DataArray  type="UInt32"  Name="offsets"  format="ascii">3 6 9 12 15 18 21 24 27 30 33 36 39 42 45 48 51 54 57 60 63 66 69 72 75 78 81 84 87 90 93 96 99 102 105 108 111 114 117 120 123 126 129 132 135 138 141 144 147 150 153 156 159 162 165 168 171 174 177 180 183 186 189 192 195 198 201 204 207 210 213 216 219 222 225 228 231 234 237 240 243 246 249 252 255 258 261 264 267 270 273 276 279 282 285 288 291 294 297 300 303 306 309 312 315 318 321 324 327 330 333 336 </DataArray>
<DataArray  type="UInt8"  Name="types"  format="ascii">5 5 5 5 5 5 5 5 5 5 5 5 5 5 5 5 5 5 5 5 5 5 5 5 5 5 5 5 5 5 5 5 5 5 5 5 5 5 5 5 5 5 5 5 5 5 5 5 5 5 5 5 5 5 5 5 5 5 5 5 5 5 5 5 5 5 5 5 5 5 5 5 5 5 5 5 5 5 5 5 5 5 5 5 5 5 5 5 5 5 5 5 5 5 5 5 5 5 5 5 5 5 5 5 5 5 5 5 5 5 5 5 </DataArray>
</Cells>
<PointData  Scalars="ControlVisualization"> 
<DataArray  type="Float64"  Name="ControlVisualization"  format="ascii">1.0306646996874917e+00  1.0648875417291466e+00  1.1981450290024394e+00  1.1033274556421004e+00  1.2654768668054412e+00  1.6217541698921101e+00  1.6715287651804360e+00  1.5446256823951574e+00  1.1245669956987225e+00  1.2268175834128594e+00  1.2182237008667316e+00  1.3463060753084901e+00  1.3201769025362200e+00  1.6101824930460973e+00  1.4428552429568799e+00  1.4937540141370540e+00  1.2739840483839000e+00  1.4930372182234040e+00  1.4777952667615559e+00  1.6242198412615285e+00  1.5149531758447137e+00  1.4344922944295311e+00  1.5213769615624013e+00  1.2339565148531157e+00  1.3809370472198044e+00  1.2435676074588236e+00  1.8406156801373494e+00  1.8824913868979709e+00  2.0194046312423404e+00  1.7460063229678073e+00  1.1191109694950847e+00  1.3427729242782753e+00  1.2534143671855600e+00  1.4641478063262632e+00  1.3501988564652816e+00  1.9726652190075873e+00  1.7497872719096568e+00  1.6474228624346754e+00  1.4951733224691544e+00  1.3034020584798929e+00  1.1918204555969509e+00  1.1590675870011860e+00  1.1925883046677375e+00  1.1686221154888126e+00  1.7974258903595792e+00  1.2904597359884202e+00  1.3025883936106812e+00  1.2280118199869741e+00  1.1605453405667583e+00  1.0806762958034197e+00  1.0000041984646630e+00  1.0083464673255491e+00  1.0222961874145808e+00  1.1476740986845657e+00  1.1464502643507144e+00  1.1351083930915982e+00  1.1620930538271923e+00  1.0503414116379828e+00  1.0518205031059735e+00  1.0174505630191037e+00  1.0126238243574379e+00  1.0285510976250187e+00  1.0792306840508628e+00  1.1415439955194491e+00  1.1885288346618741e+00  1.1762340826027033e+00  1.1380389308331271e+00  1.1383529767108838e+00  1.0544047281943969e+00  1.1016642358916751e+00  1.1200833743140335e+00  1.2305488284540196e+00  </DataArray> 
</PointData> 
</Piece>
</UnstructuredGrid>
</VTKFile>