<?xml version="1.0"?>
<VTKFile type="UnstructuredGrid"  version="0.1"  >
<UnstructuredGrid>
<Piece  NumberOfPoints="72" NumberOfCells="112">
<Points>
<DataArray  type="Float64"  NumberOfComponents="3"  format="ascii">0 0 0  1 0 0  2 0 0  3 0 0  4 0 0  5 0 0  6 0 0  7 0 0  0 1 0  1 1 0  2 1 0  3 1 0  4 1 0  5 1 0  6 1 0  7 1 0  0 2 0  1 2 0  2 2 0  3 2 0  4 2 0  5 2 0  6 2 0  7 2 0  0 3 0  1 3 0  2 3 0  3 3 0  4 3 0  5 3 0  6 3 0  7 3 0  0 4 0  1 4 0  2 4 0  3 4 0  4 4 0  5 4 0  6 4 0  7 4 0  0 5 0  1 5 0  2 5 0  3 5 0  4 5 0  5 5 0  6 5 0  7 5 0  0 6 0  1 6 0  2 6 0  3 6 0  4 6 0  5 6 0  6 6 0  7 6 0  0 7 0  1 7 0  2 7 0  3 7 0  4 7 0  5 7 0  6 7 0  7 7 0  0 8 0  1 8 0  2 8 0  3 8 0  4 8 0  5 8 0  6 8 0  7 8 0  </DataArray>
</Points>
<Cells>
<DataArray  type="UInt32"  Name="connectivity"  format="ascii">0 8 9  0 1 9  1 9 10  1 2 10  2 10 11  2 3 11  3 11 12  3 4 12  4 12 13  4 5 13  5 13 14  5 6 14  6 14 15  6 7 15  8 16 17  8 9 17  9 17 18  9 10 18  10 18 19  10 11 19  11 19 20  11 12 20  12 20 21  12 13 21  13 21 22  13 14 22  14 22 23  14 15 23  16 24 25  16 17 25  17 25 26  17 18 26  18 26 27  18 19 27  19 27 28  19 20 28  20 28 29  20 21 29  21 29 30  21 22 30  22 30 31  22 23 31  24 32 33  24 25 33  25 33 34  25 26 34  26 34 35  26 27 35  27 35 36  27 28 36  28 36 37  28 29 37  29 37 38  29 30 38  30 38 39  30 31 39  32 40 41  32 33 41  33 41 42  33 34 42  34 42 43  34 35 43  35 43 44  35 36 44  36 44 45  36 37 45  37 45 46  37 38 46  38 46 47  38 39 47  40 48 49  40 41 49  41 49 50  41 42 50  42 50 51  42 43 51  43 51 52  43 44 52  44 52 53  44 45 53  45 53 54  45 46 54  46 54 55  46 47 55  48 56 57  48 49 57  49 57 58  49 50 58  50 58 59  50 51 59  51 59 60  51 52 60  52 60 61  52 53 61  53 61 62  53 54 62  54 62 63  54 55 63  56 64 65  56 57 65  57 65 66  57 58 66  58 66 67  58 59 67  59 67 68  59 60 68  60 68 69  60 61 69  61 69 70  61 62 70  62 70 71  62 63 71  </DataArray>
<DataArray  type="UInt32"  Name="offsets"  format="ascii">3 6 9 12 15 18 21 24 27 30 33 36 39 42 45 48 51 54 57 60 63 66 69 72 75 78 81 84 87 90 93 96 99 102 105 108 111 114 117 120 123 126 129 132 135 138 141 144 147 150 153 156 159 162 165 168 171 174 177 180 183 186 189 192 195 198 201 204 207 210 213 216 219 222 225 228 231 234 237 240 243 246 249 252 255 258 261 264 267 270 273 276 279 282 285 288 291 294 297 300 303 306 309 312 315 318 321 324 327 330 333 336 </DataArray>
<DataArray  type="UInt8"  Name="types"  format="ascii">5 5 5 5 5 5 5 5 5 5 5 5 5 5 5 5 5 5 5 5 5 5 5 5 5 5 5 5 5 5 5 5 5 5 5 5 5 5 5 5 5 5 5 5 5 5 5 5 5 5 5 5 5 5 5 5 5 5 5 5 5 5 5 5 5 5 5 5 5 5 5 5 5 5 5 5 5 5 5 5 5 5 5 5 5 5 5 5 5 5 5 5 5 5 5 5 5 5 5 5 5 5 5 5 5 5 5 5 5 5 5 5 </DataArray>
</Cells>
<PointData  Scalars="ControlVisualization"> 
<DataArray  type="Float64"  Name="ControlVisualization"  format="ascii">1.0432279053222431e+00  1.1189956050303562e+00  1.0794891975703034e+00  1.0000475787688885e+00  1.1117093154864541e+00  1.2778921352375692e+00  1.2607066495124626e+00  1.2127208611352926e+00  1.0203209204187498e+00  1.1212987446592524e+00  1.1987630672198470e+00  1.1402346099823573e+00  1.1633439585730965e+00  1.2549283160094378e+00  1.2216242286801313e+00  1.1690266100537223e+00  1.0273331797593663e+00  1.1329327953583368e+00  1.4160818124573789e+00  1.5198306147226515e+00  1.4453512271033833e+00  1.3071970164167153e+00  1.1397352808232954e+00  1.0588585337160143e+00  1.1035507092143688e+00  1.1472226356095352e+00  1.5077764771951372e+00  1.8444147959498916e+00  1.8033190846627674e+00  1.4811598691950842e+00  1.1769010629440320e+00  1.0537138664135142e+00  1.1634263347539517e+00  1.1478468870152763e+00  1.3474161255076162e+00  1.7346424502393760e+00  1.8153176442314327e+00  1.5507598349116478e+00  1.2599679475333025e+00  1.1535532410717071e+00  1.1250742187274536e+00  1.0966803457175207e+00  1.1067479750870948e+00  1.2950492230743649e+00  1.4202341078308076e+00  1.3318939315113032e+00  1.1953898269984771e+00  1.1570151359731953e+00  1.0466886390206913e+00  1.0345384103693680e+00  1.0000070807022365e+00  1.0000053677076193e+00  1.0113362842365909e+00  1.0363419217141858e+00  1.0411092794955470e+00  1.0509201102513559e+00  1.0027643280349687e+00  1.0000746459446359e+00  1.0000048486175144e+00  1.0000021569164510e+00  1.0000017764577969e+00  1.0000027463501742e+00  1.0000080823380015e+00  1.0000700667883229e+00  1.0014329052827773e+00  1.0000866154967072e+00  1.0000161059766159e+00  1.0000059604667766e+00  1.0000039565613950e+00  1.0000044431001782e+00  1.0000092011987041e+00  1.0000374493098971e+00  </DataArray> 
</PointData> 
</Piece>
</UnstructuredGrid>
</VTKFile>