<?xml version="1.0"?>
<VTKFile type="UnstructuredGrid"  version="0.1"  >
<UnstructuredGrid>
<Piece  NumberOfPoints="72" NumberOfCells="112">
<Points>
<DataArray  type="Float64"  NumberOfComponents="3"  format="ascii">0 0 0  1 0 0  2 0 0  3 0 0  4 0 0  5 0 0  6 0 0  7 0 0  0 1 0  1 1 0  2 1 0  3 1 0  4 1 0  5 1 0  6 1 0  7 1 0  0 2 0  1 2 0  2 2 0  3 2 0  4 2 0  5 2 0  6 2 0  7 2 0  0 3 0  1 3 0  2 3 0  3 3 0  4 3 0  5 3 0  6 3 0  7 3 0  0 4 0  1 4 0  2 4 0  3 4 0  4 4 0  5 4 0  6 4 0  7 4 0  0 5 0  1 5 0  2 5 0  3 5 0  4 5 0  5 5 0  6 5 0  7 5 0  0 6 0  1 6 0  2 6 0  3 6 0  4 6 0  5 6 0  6 6 0  7 6 0  0 7 0  1 7 0  2 7 0  3 7 0  4 7 0  5 7 0  6 7 0  7 7 0  0 8 0  1 8 0  2 8 0  3 8 0  4 8 0  5 8 0  6 8 0  7 8 0  </DataArray>
</Points>
<Cells>
<DataArray  type="UInt32"  Name="connectivity"  format="ascii">0 8 9  0 1 9  1 9 10  1 2 10  2 10 11  2 3 11  3 11 12  3 4 12  4 12 13  4 5 13  5 13 14  5 6 14  6 14 15  6 7 15  8 16 17  8 9 17  9 17 18  9 10 18  10 18 19  10 11 19  11 19 20  11 12 20  12 20 21  12 13 21  13 21 22  13 14 22  14 22 23  14 15 23  16 24 25  16 17 25  17 25 26  17 18 26  18 26 27  18 19 27  19 27 28  19 20 28  20 28 29  20 21 29  21 29 30  21 22 30  22 30 31  22 23 31  24 32 33  24 25 33  25 33 34  25 26 34  26 34 35  26 27 35  27 35 36  27 28 36  28 36 37  28 29 37  29 37 38  29 30 38  30 38 39  30 31 39  32 40 41  32 33 41  33 41 42  33 34 42  34 42 43  34 35 43  35 43 44  35 36 44  36 44 45  36 37 45  37 45 46  37 38 46  38 46 47  38 39 47  40 48 49  40 41 49  41 49 50  41 42 50  42 50 51  42 43 51  43 51 52  43 44 52  44 52 53  44 45 53  45 53 54  45 46 54  46 54 55  46 47 55  48 56 57  48 49 57  49 57 58  49 50 58  50 58 59  50 51 59  51 59 60  51 52 60  52 60 61  52 53 61  53 61 62  53 54 62  54 62 63  54 55 63  56 64 65  56 57 65  57 65 66  57 58 66  58 66 67  58 59 67  59 67 68  59 60 68  60 68 69  60 61 69  61 69 70  61 62 70  62 70 71  62 63 71  </DataArray>
<DataArray  type="UInt32"  Name="offsets"  format="ascii">3 6 9 12 15 18 21 24 27 30 33 36 39 42 45 48 51 54 57 60 63 66 69 72 75 78 81 84 87 90 93 96 99 102 105 108 111 114 117 120 123 126 129 132 135 138 141 144 147 150 153 156 159 162 165 168 171 174 177 180 183 186 189 192 195 198 201 204 207 210 213 216 219 222 225 228 231 234 237 240 243 246 249 252 255 258 261 264 267 270 273 276 279 282 285 288 291 294 297 300 303 306 309 312 315 318 321 324 327 330 333 336 </DataArray>
<DataArray  type="UInt8"  Name="types"  format="ascii">5 5 5 5 5 5 5 5 5 5 5 5 5 5 5 5 5 5 5 5 5 5 5 5 5 5 5 5 5 5 5 5 5 5 5 5 5 5 5 5 5 5 5 5 5 5 5 5 5 5 5 5 5 5 5 5 5 5 5 5 5 5 5 5 5 5 5 5 5 5 5 5 5 5 5 5 5 5 5 5 5 5 5 5 5 5 5 5 5 5 5 5 5 5 5 5 5 5 5 5 5 5 5 5 5 5 5 5 5 5 5 5 </DataArray>
</Cells>
<PointData  Scalars="ControlVisualization"> 
<DataArray  type="Float64"  Name="ControlVisualization"  format="ascii">5.9371086024328079e+00  6.2687776679249430e+00  6.2443276020649829e+00  6.1981185888340242e+00  6.2314197632968842e+00  6.2799110816370209e+00  6.0842488125304159e+00  5.9315065504212283e+00  5.6795976840397264e+00  6.1258199807453355e+00  6.4532987504106485e+00  6.4077193150346501e+00  6.3752800577133986e+00  6.3466817586547668e+00  6.0631200616807819e+00  5.8736807657500885e+00  5.6390032143590201e+00  5.7837061835635533e+00  6.3059442895283251e+00  6.3872363770220462e+00  6.3099679779496034e+00  6.1435959183802025e+00  5.8093407064856191e+00  5.6990766991306474e+00  5.6968986994616921e+00  5.6304207285002450e+00  6.0626250619049058e+00  6.3149344862846393e+00  6.2611115349365507e+00  6.0316484288979240e+00  5.7330452888493362e+00  5.6823174458543741e+00  5.7674609103637637e+00  5.6496831135760273e+00  5.8276577186072371e+00  6.0591838886494855e+00  6.1090635882504243e+00  5.9571779974836447e+00  5.7494966718005358e+00  5.7326504831305964e+00  5.8254185444196747e+00  5.7160017037982280e+00  5.7218097829775338e+00  5.7930793173289672e+00  5.8635022394200824e+00  5.8453891285438093e+00  5.7655393527598875e+00  5.7861844745137212e+00  5.8688931024793263e+00  5.7764773959427380e+00  5.7102173585211604e+00  5.6651835038699616e+00  5.6879112194525998e+00  5.7478385549576503e+00  5.7794149926681859e+00  5.8293992607813232e+00  5.8977919087853108e+00  5.8225345341161789e+00  5.7401597943206610e+00  5.6612623413578351e+00  5.6457076532289951e+00  5.7115128031446805e+00  5.8036621625746747e+00  5.8698384802912269e+00  5.9279732919752703e+00  5.8945942393334967e+00  5.8493370087548842e+00  5.7990637543283050e+00  5.7750436390652595e+00  5.7955013009943794e+00  5.8516503845250325e+00  5.9025351100980705e+00  </DataArray> 
</PointData> 
</Piece>
</UnstructuredGrid>
</VTKFile>