<?xml version="1.0"?>
<VTKFile type="UnstructuredGrid"  version="0.1"  >
<UnstructuredGrid>
<Piece  NumberOfPoints="72" NumberOfCells="112">
<Points>
<DataArray  type="Float64"  NumberOfComponents="3"  format="ascii">0 0 0  1 0 0  2 0 0  3 0 0  4 0 0  5 0 0  6 0 0  7 0 0  0 1 0  1 1 0  2 1 0  3 1 0  4 1 0  5 1 0  6 1 0  7 1 0  0 2 0  1 2 0  2 2 0  3 2 0  4 2 0  5 2 0  6 2 0  7 2 0  0 3 0  1 3 0  2 3 0  3 3 0  4 3 0  5 3 0  6 3 0  7 3 0  0 4 0  1 4 0  2 4 0  3 4 0  4 4 0  5 4 0  6 4 0  7 4 0  0 5 0  1 5 0  2 5 0  3 5 0  4 5 0  5 5 0  6 5 0  7 5 0  0 6 0  1 6 0  2 6 0  3 6 0  4 6 0  5 6 0  6 6 0  7 6 0  0 7 0  1 7 0  2 7 0  3 7 0  4 7 0  5 7 0  6 7 0  7 7 0  0 8 0  1 8 0  2 8 0  3 8 0  4 8 0  5 8 0  6 8 0  7 8 0  </DataArray>
</Points>
<Cells>
<DataArray  type="UInt32"  Name="connectivity"  format="ascii">0 8 9  0 1 9  1 9 10  1 2 10  2 10 11  2 3 11  3 11 12  3 4 12  4 12 13  4 5 13  5 13 14  5 6 14  6 14 15  6 7 15  8 16 17  8 9 17  9 17 18  9 10 18  10 18 19  10 11 19  11 19 20  11 12 20  12 20 21  12 13 21  13 21 22  13 14 22  14 22 23  14 15 23  16 24 25  16 17 25  17 25 26  17 18 26  18 26 27  18 19 27  19 27 28  19 20 28  20 28 29  20 21 29  21 29 30  21 22 30  22 30 31  22 23 31  24 32 33  24 25 33  25 33 34  25 26 34  26 34 35  26 27 35  27 35 36  27 28 36  28 36 37  28 29 37  29 37 38  29 30 38  30 38 39  30 31 39  32 40 41  32 33 41  33 41 42  33 34 42  34 42 43  34 35 43  35 43 44  35 36 44  36 44 45  36 37 45  37 45 46  37 38 46  38 46 47  38 39 47  40 48 49  40 41 49  41 49 50  41 42 50  42 50 51  42 43 51  43 51 52  43 44 52  44 52 53  44 45 53  45 53 54  45 46 54  46 54 55  46 47 55  48 56 57  48 49 57  49 57 58  49 50 58  50 58 59  50 51 59  51 59 60  51 52 60  52 60 61  52 53 61  53 61 62  53 54 62  54 62 63  54 55 63  56 64 65  56 57 65  57 65 66  57 58 66  58 66 67  58 59 67  59 67 68  59 60 68  60 68 69  60 61 69  61 69 70  61 62 70  62 70 71  62 63 71  </DataArray>
<DataArray  type="UInt32"  Name="offsets"  format="ascii">3 6 9 12 15 18 21 24 27 30 33 36 39 42 45 48 51 54 57 60 63 66 69 72 75 78 81 84 87 90 93 96 99 102 105 108 111 114 117 120 123 126 129 132 135 138 141 144 147 150 153 156 159 162 165 168 171 174 177 180 183 186 189 192 195 198 201 204 207 210 213 216 219 222 225 228 231 234 237 240 243 246 249 252 255 258 261 264 267 270 273 276 279 282 285 288 291 294 297 300 303 306 309 312 315 318 321 324 327 330 333 336 </DataArray>
<DataArray  type="UInt8"  Name="types"  format="ascii">5 5 5 5 5 5 5 5 5 5 5 5 5 5 5 5 5 5 5 5 5 5 5 5 5 5 5 5 5 5 5 5 5 5 5 5 5 5 5 5 5 5 5 5 5 5 5 5 5 5 5 5 5 5 5 5 5 5 5 5 5 5 5 5 5 5 5 5 5 5 5 5 5 5 5 5 5 5 5 5 5 5 5 5 5 5 5 5 5 5 5 5 5 5 5 5 5 5 5 5 5 5 5 5 5 5 5 5 5 5 5 5 </DataArray>
</Cells>
<PointData  Scalars="ControlVisualization"> 
<DataArray  type="Float64"  Name="ControlVisualization"  format="ascii">1.0465370668868546e+00  1.1164590137411439e+00  1.0777199738045160e+00  1.0003744120288507e+00  1.1137726474902159e+00  1.2795442956744656e+00  1.2624649007301516e+00  1.2152327486513812e+00  1.0215932489737243e+00  1.1207051770907244e+00  1.1967475714658224e+00  1.1412784310751325e+00  1.1659607898877355e+00  1.2573226073542361e+00  1.2211611565795997e+00  1.1711763830671491e+00  1.0253070927282502e+00  1.1357026022011760e+00  1.4166514290711987e+00  1.5199232786871406e+00  1.4479887799832389e+00  1.3075434679044524e+00  1.1431692383099583e+00  1.0591223084336803e+00  1.1025483667893308e+00  1.1464438869823406e+00  1.5089669003650805e+00  1.8462996015762174e+00  1.8038814937821419e+00  1.4837246101935271e+00  1.1776062470238775e+00  1.0551816431512901e+00  1.1627960355016242e+00  1.1470522893891104e+00  1.3495728973775689e+00  1.7344399221802071e+00  1.8171494704919025e+00  1.5522116322679529e+00  1.2631277999741441e+00  1.1557215948461932e+00  1.1248955988911324e+00  1.0982853259662297e+00  1.1060791326245905e+00  1.2971891757456731e+00  1.4216016190066512e+00  1.3336879126062451e+00  1.1986854722845470e+00  1.1603951173262228e+00  1.0481632386371695e+00  1.0337294490383402e+00  1.0000559815430670e+00  1.0000424849624303e+00  1.0120703050604158e+00  1.0393605795179357e+00  1.0429858203525006e+00  1.0542032739339011e+00  1.0050090157008769e+00  1.0005944763596089e+00  1.0000383994800339e+00  1.0000171164378111e+00  1.0000141115616834e+00  1.0000217730953689e+00  1.0000639367358899e+00  1.0005543637977341e+00  1.0036782011967214e+00  1.0006584880406360e+00  1.0001271758917494e+00  1.0000471768409678e+00  1.0000313395515548e+00  1.0000351859350471e+00  1.0000727709620560e+00  1.0002909900509953e+00  </DataArray> 
</PointData> 
</Piece>
</UnstructuredGrid>
</VTKFile>