<?xml version="1.0"?>
<VTKFile type="UnstructuredGrid"  version="0.1"  >
<UnstructuredGrid>
<Piece  NumberOfPoints="72" NumberOfCells="112">
<Points>
<DataArray  type="Float64"  NumberOfComponents="3"  format="ascii">0 0 0  1 0 0  2 0 0  3 0 0  4 0 0  5 0 0  6 0 0  7 0 0  0 1 0  1 1 0  2 1 0  3 1 0  4 1 0  5 1 0  6 1 0  7 1 0  0 2 0  1 2 0  2 2 0  3 2 0  4 2 0  5 2 0  6 2 0  7 2 0  0 3 0  1 3 0  2 3 0  3 3 0  4 3 0  5 3 0  6 3 0  7 3 0  0 4 0  1 4 0  2 4 0  3 4 0  4 4 0  5 4 0  6 4 0  7 4 0  0 5 0  1 5 0  2 5 0  3 5 0  4 5 0  5 5 0  6 5 0  7 5 0  0 6 0  1 6 0  2 6 0  3 6 0  4 6 0  5 6 0  6 6 0  7 6 0  0 7 0  1 7 0  2 7 0  3 7 0  4 7 0  5 7 0  6 7 0  7 7 0  0 8 0  1 8 0  2 8 0  3 8 0  4 8 0  5 8 0  6 8 0  7 8 0  </DataArray>
</Points>
<Cells>
<DataArray  type="UInt32"  Name="connectivity"  format="ascii">0 8 9  0 1 9  1 9 10  1 2 10  2 10 11  2 3 11  3 11 12  3 4 12  4 12 13  4 5 13  5 13 14  5 6 14  6 14 15  6 7 15  8 16 17  8 9 17  9 17 18  9 10 18  10 18 19  10 11 19  11 19 20  11 12 20  12 20 21  12 13 21  13 21 22  13 14 22  14 22 23  14 15 23  16 24 25  16 17 25  17 25 26  17 18 26  18 26 27  18 19 27  19 27 28  19 20 28  20 28 29  20 21 29  21 29 30  21 22 30  22 30 31  22 23 31  24 32 33  24 25 33  25 33 34  25 26 34  26 34 35  26 27 35  27 35 36  27 28 36  28 36 37  28 29 37  29 37 38  29 30 38  30 38 39  30 31 39  32 40 41  32 33 41  33 41 42  33 34 42  34 42 43  34 35 43  35 43 44  35 36 44  36 44 45  36 37 45  37 45 46  37 38 46  38 46 47  38 39 47  40 48 49  40 41 49  41 49 50  41 42 50  42 50 51  42 43 51  43 51 52  43 44 52  44 52 53  44 45 53  45 53 54  45 46 54  46 54 55  46 47 55  48 56 57  48 49 57  49 57 58  49 50 58  50 58 59  50 51 59  51 59 60  51 52 60  52 60 61  52 53 61  53 61 62  53 54 62  54 62 63  54 55 63  56 64 65  56 57 65  57 65 66  57 58 66  58 66 67  58 59 67  59 67 68  59 60 68  60 68 69  60 61 69  61 69 70  61 62 70  62 70 71  62 63 71  </DataArray>
<DataArray  type="UInt32"  Name="offsets"  format="ascii">3 6 9 12 15 18 21 24 27 30 33 36 39 42 45 48 51 54 57 60 63 66 69 72 75 78 81 84 87 90 93 96 99 102 105 108 111 114 117 120 123 126 129 132 135 138 141 144 147 150 153 156 159 162 165 168 171 174 177 180 183 186 189 192 195 198 201 204 207 210 213 216 219 222 225 228 231 234 237 240 243 246 249 252 255 258 261 264 267 270 273 276 279 282 285 288 291 294 297 300 303 306 309 312 315 318 321 324 327 330 333 336 </DataArray>
<DataArray  type="UInt8"  Name="types"  format="ascii">5 5 5 5 5 5 5 5 5 5 5 5 5 5 5 5 5 5 5 5 5 5 5 5 5 5 5 5 5 5 5 5 5 5 5 5 5 5 5 5 5 5 5 5 5 5 5 5 5 5 5 5 5 5 5 5 5 5 5 5 5 5 5 5 5 5 5 5 5 5 5 5 5 5 5 5 5 5 5 5 5 5 5 5 5 5 5 5 5 5 5 5 5 5 5 5 5 5 5 5 5 5 5 5 5 5 5 5 5 5 5 5 </DataArray>
</Cells>
<PointData  Scalars="ControlVisualization"> 
<DataArray  type="Float64"  Name="ControlVisualization"  format="ascii">1.0562798705782168e+00  1.1088196329423392e+00  1.0661845015221652e+00  1.0095279643003119e+00  1.1321211714227044e+00  1.3050997348262632e+00  1.2911557350392842e+00  1.2590744556522548e+00  1.0220155655282004e+00  1.1196075440253270e+00  1.2027883830748638e+00  1.1516100113975758e+00  1.1706414614012084e+00  1.2803954920175160e+00  1.2464745256870957e+00  1.1993901579884869e+00  1.0270962970501425e+00  1.1307092501966052e+00  1.4194338129464501e+00  1.5268349440020303e+00  1.4730353147368693e+00  1.3170145796121147e+00  1.1517665781233759e+00  1.0697484310379684e+00  1.0969713035609778e+00  1.1467472928974680e+00  1.5288665107607415e+00  1.8532756835499509e+00  1.8239103215517547e+00  1.5074122558521283e+00  1.2008548895439068e+00  1.0621904338892942e+00  1.1538617977807120e+00  1.1589456320407268e+00  1.3548748533934292e+00  1.7478609248235868e+00  1.8332252993296654e+00  1.5707796151242512e+00  1.2803058766976789e+00  1.1731831338073404e+00  1.1242249873734267e+00  1.1046401064663331e+00  1.1113858715779423e+00  1.3075773820334975e+00  1.4229183299745920e+00  1.3543382441115877e+00  1.2057139956702425e+00  1.1847866488966441e+00  1.0578076751627152e+00  1.0347201004291724e+00  1.0009640360533127e+00  1.0007876471538155e+00  1.0352033762110284e+00  1.0582100232516809e+00  1.0607349130847445e+00  1.0778334474450182e+00  1.0226827370230813e+00  1.0109021965533191e+00  1.0004692071995518e+00  1.0002731559005646e+00  1.0002712156291131e+00  1.0002884402455325e+00  1.0016471514198886e+00  1.0108208831893388e+00  1.0311091120221265e+00  1.0137816328766678e+00  1.0047515442069264e+00  1.0011919690336348e+00  1.0004235739969891e+00  1.0010618697796496e+00  1.0011281546796016e+00  1.0029929909472968e+00  </DataArray> 
</PointData> 
</Piece>
</UnstructuredGrid>
</VTKFile>