<?xml version="1.0"?>
<VTKFile type="UnstructuredGrid"  version="0.1"  >
<UnstructuredGrid>
<Piece  NumberOfPoints="72" NumberOfCells="112">
<Points>
<DataArray  type="Float64"  NumberOfComponents="3"  format="ascii">0 0 0  1 0 0  2 0 0  3 0 0  4 0 0  5 0 0  6 0 0  7 0 0  0 1 0  1 1 0  2 1 0  3 1 0  4 1 0  5 1 0  6 1 0  7 1 0  0 2 0  1 2 0  2 2 0  3 2 0  4 2 0  5 2 0  6 2 0  7 2 0  0 3 0  1 3 0  2 3 0  3 3 0  4 3 0  5 3 0  6 3 0  7 3 0  0 4 0  1 4 0  2 4 0  3 4 0  4 4 0  5 4 0  6 4 0  7 4 0  0 5 0  1 5 0  2 5 0  3 5 0  4 5 0  5 5 0  6 5 0  7 5 0  0 6 0  1 6 0  2 6 0  3 6 0  4 6 0  5 6 0  6 6 0  7 6 0  0 7 0  1 7 0  2 7 0  3 7 0  4 7 0  5 7 0  6 7 0  7 7 0  0 8 0  1 8 0  2 8 0  3 8 0  4 8 0  5 8 0  6 8 0  7 8 0  </DataArray>
</Points>
<Cells>
<DataArray  type="UInt32"  Name="connectivity"  format="ascii">0 8 9  0 1 9  1 9 10  1 2 10  2 10 11  2 3 11  3 11 12  3 4 12  4 12 13  4 5 13  5 13 14  5 6 14  6 14 15  6 7 15  8 16 17  8 9 17  9 17 18  9 10 18  10 18 19  10 11 19  11 19 20  11 12 20  12 20 21  12 13 21  13 21 22  13 14 22  14 22 23  14 15 23  16 24 25  16 17 25  17 25 26  17 18 26  18 26 27  18 19 27  19 27 28  19 20 28  20 28 29  20 21 29  21 29 30  21 22 30  22 30 31  22 23 31  24 32 33  24 25 33  25 33 34  25 26 34  26 34 35  26 27 35  27 35 36  27 28 36  28 36 37  28 29 37  29 37 38  29 30 38  30 38 39  30 31 39  32 40 41  32 33 41  33 41 42  33 34 42  34 42 43  34 35 43  35 43 44  35 36 44  36 44 45  36 37 45  37 45 46  37 38 46  38 46 47  38 39 47  40 48 49  40 41 49  41 49 50  41 42 50  42 50 51  42 43 51  43 51 52  43 44 52  44 52 53  44 45 53  45 53 54  45 46 54  46 54 55  46 47 55  48 56 57  48 49 57  49 57 58  49 50 58  50 58 59  50 51 59  51 59 60  51 52 60  52 60 61  52 53 61  53 61 62  53 54 62  54 62 63  54 55 63  56 64 65  56 57 65  57 65 66  57 58 66  58 66 67  58 59 67  59 67 68  59 60 68  60 68 69  60 61 69  61 69 70  61 62 70  62 70 71  62 63 71  </DataArray>
<DataArray  type="UInt32"  Name="offsets"  format="ascii">3 6 9 12 15 18 21 24 27 30 33 36 39 42 45 48 51 54 57 60 63 66 69 72 75 78 81 84 87 90 93 96 99 102 105 108 111 114 117 120 123 126 129 132 135 138 141 144 147 150 153 156 159 162 165 168 171 174 177 180 183 186 189 192 195 198 201 204 207 210 213 216 219 222 225 228 231 234 237 240 243 246 249 252 255 258 261 264 267 270 273 276 279 282 285 288 291 294 297 300 303 306 309 312 315 318 321 324 327 330 333 336 </DataArray>
<DataArray  type="UInt8"  Name="types"  format="ascii">5 5 5 5 5 5 5 5 5 5 5 5 5 5 5 5 5 5 5 5 5 5 5 5 5 5 5 5 5 5 5 5 5 5 5 5 5 5 5 5 5 5 5 5 5 5 5 5 5 5 5 5 5 5 5 5 5 5 5 5 5 5 5 5 5 5 5 5 5 5 5 5 5 5 5 5 5 5 5 5 5 5 5 5 5 5 5 5 5 5 5 5 5 5 5 5 5 5 5 5 5 5 5 5 5 5 5 5 5 5 5 5 </DataArray>
</Cells>
<PointData  Scalars="ControlVisualization"> 
<DataArray  type="Float64"  Name="ControlVisualization"  format="ascii">1.0457881370013593e+00  1.1162908464218060e+00  1.0779784137008732e+00  1.0002931100156371e+00  1.1126644637883933e+00  1.2771593186134489e+00  1.2611500191082827e+00  1.2165304544093312e+00  1.0213669370276643e+00  1.1205747108677919e+00  1.1973354357659323e+00  1.1414408298388581e+00  1.1649515460482001e+00  1.2559098435627920e+00  1.2197299742104439e+00  1.1708793579679986e+00  1.0253121823681259e+00  1.1355657972375934e+00  1.4166881550726187e+00  1.5198287528791943e+00  1.4475536254122974e+00  1.3059100354757782e+00  1.1420490235382521e+00  1.0582606304517099e+00  1.1025090645983584e+00  1.1460692326968618e+00  1.5092832355020560e+00  1.8461675303751233e+00  1.8035009946574749e+00  1.4829053237654182e+00  1.1761136851642564e+00  1.0540986581941978e+00  1.1624915543242389e+00  1.1472012709329682e+00  1.3491479661298329e+00  1.7342400647835692e+00  1.8168003102272481e+00  1.5511517432155308e+00  1.2621253449979535e+00  1.1544548472360106e+00  1.1248088877022007e+00  1.0983856562518683e+00  1.1058340040498194e+00  1.2970629859083813e+00  1.4211959052298169e+00  1.3332852717224351e+00  1.1976499178256930e+00  1.1593973737996748e+00  1.0486591614579914e+00  1.0336863184331939e+00  1.0000452144227030e+00  1.0000340647334669e+00  1.0117343287267562e+00  1.0388345750225167e+00  1.0425254674744013e+00  1.0535938922256753e+00  1.0055551223593151e+00  1.0004747241647520e+00  1.0000309985487825e+00  1.0000137720553155e+00  1.0000113491240152e+00  1.0000174597102911e+00  1.0000511412482855e+00  1.0004185514112893e+00  1.0042918140307466e+00  1.0005125268203363e+00  1.0001027452359266e+00  1.0000379778602719e+00  1.0000252100225107e+00  1.0000282862853520e+00  1.0000584500898917e+00  1.0002331101575268e+00  </DataArray> 
</PointData> 
</Piece>
</UnstructuredGrid>
</VTKFile>