<?xml version="1.0"?>
<VTKFile type="UnstructuredGrid"  version="0.1"  >
<UnstructuredGrid>
<Piece  NumberOfPoints="72" NumberOfCells="112">
<Points>
<DataArray  type="Float64"  NumberOfComponents="3"  format="ascii">0 0 0  1 0 0  2 0 0  3 0 0  4 0 0  5 0 0  6 0 0  7 0 0  0 1 0  1 1 0  2 1 0  3 1 0  4 1 0  5 1 0  6 1 0  7 1 0  0 2 0  1 2 0  2 2 0  3 2 0  4 2 0  5 2 0  6 2 0  7 2 0  0 3 0  1 3 0  2 3 0  3 3 0  4 3 0  5 3 0  6 3 0  7 3 0  0 4 0  1 4 0  2 4 0  3 4 0  4 4 0  5 4 0  6 4 0  7 4 0  0 5 0  1 5 0  2 5 0  3 5 0  4 5 0  5 5 0  6 5 0  7 5 0  0 6 0  1 6 0  2 6 0  3 6 0  4 6 0  5 6 0  6 6 0  7 6 0  0 7 0  1 7 0  2 7 0  3 7 0  4 7 0  5 7 0  6 7 0  7 7 0  0 8 0  1 8 0  2 8 0  3 8 0  4 8 0  5 8 0  6 8 0  7 8 0  </DataArray>
</Points>
<Cells>
<DataArray  type="UInt32"  Name="connectivity"  format="ascii">0 8 9  0 1 9  1 9 10  1 2 10  2 10 11  2 3 11  3 11 12  3 4 12  4 12 13  4 5 13  5 13 14  5 6 14  6 14 15  6 7 15  8 16 17  8 9 17  9 17 18  9 10 18  10 18 19  10 11 19  11 19 20  11 12 20  12 20 21  12 13 21  13 21 22  13 14 22  14 22 23  14 15 23  16 24 25  16 17 25  17 25 26  17 18 26  18 26 27  18 19 27  19 27 28  19 20 28  20 28 29  20 21 29  21 29 30  21 22 30  22 30 31  22 23 31  24 32 33  24 25 33  25 33 34  25 26 34  26 34 35  26 27 35  27 35 36  27 28 36  28 36 37  28 29 37  29 37 38  29 30 38  30 38 39  30 31 39  32 40 41  32 33 41  33 41 42  33 34 42  34 42 43  34 35 43  35 43 44  35 36 44  36 44 45  36 37 45  37 45 46  37 38 46  38 46 47  38 39 47  40 48 49  40 41 49  41 49 50  41 42 50  42 50 51  42 43 51  43 51 52  43 44 52  44 52 53  44 45 53  45 53 54  45 46 54  46 54 55  46 47 55  48 56 57  48 49 57  49 57 58  49 50 58  50 58 59  50 51 59  51 59 60  51 52 60  52 60 61  52 53 61  53 61 62  53 54 62  54 62 63  54 55 63  56 64 65  56 57 65  57 65 66  57 58 66  58 66 67  58 59 67  59 67 68  59 60 68  60 68 69  60 61 69  61 69 70  61 62 70  62 70 71  62 63 71  </DataArray>
<DataArray  type="UInt32"  Name="offsets"  format="ascii">3 6 9 12 15 18 21 24 27 30 33 36 39 42 45 48 51 54 57 60 63 66 69 72 75 78 81 84 87 90 93 96 99 102 105 108 111 114 117 120 123 126 129 132 135 138 141 144 147 150 153 156 159 162 165 168 171 174 177 180 183 186 189 192 195 198 201 204 207 210 213 216 219 222 225 228 231 234 237 240 243 246 249 252 255 258 261 264 267 270 273 276 279 282 285 288 291 294 297 300 303 306 309 312 315 318 321 324 327 330 333 336 </DataArray>
<DataArray  type="UInt8"  Name="types"  format="ascii">5 5 5 5 5 5 5 5 5 5 5 5 5 5 5 5 5 5 5 5 5 5 5 5 5 5 5 5 5 5 5 5 5 5 5 5 5 5 5 5 5 5 5 5 5 5 5 5 5 5 5 5 5 5 5 5 5 5 5 5 5 5 5 5 5 5 5 5 5 5 5 5 5 5 5 5 5 5 5 5 5 5 5 5 5 5 5 5 5 5 5 5 5 5 5 5 5 5 5 5 5 5 5 5 5 5 5 5 5 5 5 5 </DataArray>
</Cells>
<PointData  Scalars="ControlVisualization"> 
<DataArray  type="Float64"  Name="ControlVisualization"  format="ascii">1.0457859143532804e+00  1.1162407693585974e+00  1.0778738190919830e+00  1.0002949872729607e+00  1.1126212600626926e+00  1.2769210546104053e+00  1.2610785078699358e+00  1.2168702600430827e+00  1.0212453915209556e+00  1.1206817375234104e+00  1.1974515803306560e+00  1.1414867552260706e+00  1.1645859471186932e+00  1.2558933677589925e+00  1.2197280372692447e+00  1.1708849178861109e+00  1.0251902854770802e+00  1.1355711520483378e+00  1.4165877944039535e+00  1.5197266890085825e+00  1.4474569117017235e+00  1.3056142298942015e+00  1.1417109190554380e+00  1.0581748722649600e+00  1.1024144941583294e+00  1.1457923876675877e+00  1.5097046287696763e+00  1.8461596993770588e+00  1.8035455012466395e+00  1.4828122120071776e+00  1.1760189256244722e+00  1.0539288942847884e+00  1.1623753052782444e+00  1.1472319635361812e+00  1.3491167962387423e+00  1.7342536729644831e+00  1.8168024827677243e+00  1.5509826624055947e+00  1.2620837597565293e+00  1.1544077492585556e+00  1.1247921611550173e+00  1.0984592273985314e+00  1.1058199539928266e+00  1.2971938304431743e+00  1.4212431810353565e+00  1.3333798575891898e+00  1.1977360768909104e+00  1.1593514886592580e+00  1.0488205568582136e+00  1.0335742981361833e+00  1.0000451724867012e+00  1.0000340074249132e+00  1.0118684074528834e+00  1.0387015417185241e+00  1.0426633387756581e+00  1.0536301347078680e+00  1.0057445667828118e+00  1.0004810185032182e+00  1.0000309710494553e+00  1.0000137643718647e+00  1.0000113432440672e+00  1.0000174507026549e+00  1.0000510646224423e+00  1.0004176468167494e+00  1.0045807299866760e+00  1.0005172048973328e+00  1.0001026601135092e+00  1.0000379553678747e+00  1.0000251981093986e+00  1.0000282728836922e+00  1.0000584183340064e+00  1.0002331291314401e+00  </DataArray> 
</PointData> 
</Piece>
</UnstructuredGrid>
</VTKFile>