<?xml version="1.0"?>
<VTKFile type="UnstructuredGrid"  version="0.1"  >
<UnstructuredGrid>
<Piece  NumberOfPoints="72" NumberOfCells="112">
<Points>
<DataArray  type="Float64"  NumberOfComponents="3"  format="ascii">0 0 0  1 0 0  2 0 0  3 0 0  4 0 0  5 0 0  6 0 0  7 0 0  0 1 0  1 1 0  2 1 0  3 1 0  4 1 0  5 1 0  6 1 0  7 1 0  0 2 0  1 2 0  2 2 0  3 2 0  4 2 0  5 2 0  6 2 0  7 2 0  0 3 0  1 3 0  2 3 0  3 3 0  4 3 0  5 3 0  6 3 0  7 3 0  0 4 0  1 4 0  2 4 0  3 4 0  4 4 0  5 4 0  6 4 0  7 4 0  0 5 0  1 5 0  2 5 0  3 5 0  4 5 0  5 5 0  6 5 0  7 5 0  0 6 0  1 6 0  2 6 0  3 6 0  4 6 0  5 6 0  6 6 0  7 6 0  0 7 0  1 7 0  2 7 0  3 7 0  4 7 0  5 7 0  6 7 0  7 7 0  0 8 0  1 8 0  2 8 0  3 8 0  4 8 0  5 8 0  6 8 0  7 8 0  </DataArray>
</Points>
<Cells>
<DataArray  type="UInt32"  Name="connectivity"  format="ascii">0 8 9  0 1 9  1 9 10  1 2 10  2 10 11  2 3 11  3 11 12  3 4 12  4 12 13  4 5 13  5 13 14  5 6 14  6 14 15  6 7 15  8 16 17  8 9 17  9 17 18  9 10 18  10 18 19  10 11 19  11 19 20  11 12 20  12 20 21  12 13 21  13 21 22  13 14 22  14 22 23  14 15 23  16 24 25  16 17 25  17 25 26  17 18 26  18 26 27  18 19 27  19 27 28  19 20 28  20 28 29  20 21 29  21 29 30  21 22 30  22 30 31  22 23 31  24 32 33  24 25 33  25 33 34  25 26 34  26 34 35  26 27 35  27 35 36  27 28 36  28 36 37  28 29 37  29 37 38  29 30 38  30 38 39  30 31 39  32 40 41  32 33 41  33 41 42  33 34 42  34 42 43  34 35 43  35 43 44  35 36 44  36 44 45  36 37 45  37 45 46  37 38 46  38 46 47  38 39 47  40 48 49  40 41 49  41 49 50  41 42 50  42 50 51  42 43 51  43 51 52  43 44 52  44 52 53  44 45 53  45 53 54  45 46 54  46 54 55  46 47 55  48 56 57  48 49 57  49 57 58  49 50 58  50 58 59  50 51 59  51 59 60  51 52 60  52 60 61  52 53 61  53 61 62  53 54 62  54 62 63  54 55 63  56 64 65  56 57 65  57 65 66  57 58 66  58 66 67  58 59 67  59 67 68  59 60 68  60 68 69  60 61 69  61 69 70  61 62 70  62 70 71  62 63 71  </DataArray>
<DataArray  type="UInt32"  Name="offsets"  format="ascii">3 6 9 12 15 18 21 24 27 30 33 36 39 42 45 48 51 54 57 60 63 66 69 72 75 78 81 84 87 90 93 96 99 102 105 108 111 114 117 120 123 126 129 132 135 138 141 144 147 150 153 156 159 162 165 168 171 174 177 180 183 186 189 192 195 198 201 204 207 210 213 216 219 222 225 228 231 234 237 240 243 246 249 252 255 258 261 264 267 270 273 276 279 282 285 288 291 294 297 300 303 306 309 312 315 318 321 324 327 330 333 336 </DataArray>
<DataArray  type="UInt8"  Name="types"  format="ascii">5 5 5 5 5 5 5 5 5 5 5 5 5 5 5 5 5 5 5 5 5 5 5 5 5 5 5 5 5 5 5 5 5 5 5 5 5 5 5 5 5 5 5 5 5 5 5 5 5 5 5 5 5 5 5 5 5 5 5 5 5 5 5 5 5 5 5 5 5 5 5 5 5 5 5 5 5 5 5 5 5 5 5 5 5 5 5 5 5 5 5 5 5 5 5 5 5 5 5 5 5 5 5 5 5 5 5 5 5 5 5 5 </DataArray>
</Cells>
<PointData  Scalars="ControlVisualization"> 
<DataArray  type="Float64"  Name="ControlVisualization"  format="ascii">6.6282298827987676e+00  7.1535132864117665e+00  7.4045836671233953e+00  7.4475190348503890e+00  7.5348280530984351e+00  7.6894960276077544e+00  7.4987591516952081e+00  7.2296818603800856e+00  6.1073533850648163e+00  6.6778032058246914e+00  7.2664554100954390e+00  7.5101846799651568e+00  7.6445541293121542e+00  7.4242870647628454e+00  6.9933232985437606e+00  6.8433216056111119e+00  5.7085509526641145e+00  6.0766551126939996e+00  6.7406624589696893e+00  7.0314556825329273e+00  6.8916111066379582e+00  6.7649358399181541e+00  6.4017945369307885e+00  5.9778996470232730e+00  5.3044141350444267e+00  5.4519777860240231e+00  6.0561596870679582e+00  6.5281835144347600e+00  6.4368816311291717e+00  6.2626595847717557e+00  5.4887095749993104e+00  5.2570448526634994e+00  4.8374352332991446e+00  4.7787513206480385e+00  5.5358113881343449e+00  5.5957915463852270e+00  5.7402227848209275e+00  5.4119917251427268e+00  4.9049918539314206e+00  4.6205548582584681e+00  4.3383344618724493e+00  4.4642919496242488e+00  4.4239481548228294e+00  4.4727616912628676e+00  4.5373870312526883e+00  4.5050552653765079e+00  4.2108684198749566e+00  4.1165856885404830e+00  4.0314397878540369e+00  3.9223953383762309e+00  3.7591846195073013e+00  3.7134616300116763e+00  3.6378939927773470e+00  3.6856639888422884e+00  3.6674467703177345e+00  3.6248657241301041e+00  3.8298508645886535e+00  3.6533806539323304e+00  3.5222200779374710e+00  3.2671284554976210e+00  3.1952078721695458e+00  3.2045589814954405e+00  3.2704326673640973e+00  3.3187295487936037e+00  3.7586933959448290e+00  3.6730145490644270e+00  3.4429968576516563e+00  3.2443556735585992e+00  3.0847649777166772e+00  3.0531199018999802e+00  3.1533531227513478e+00  3.2151482738029529e+00  </DataArray> 
</PointData> 
</Piece>
</UnstructuredGrid>
</VTKFile>