<?xml version="1.0"?>
<VTKFile type="UnstructuredGrid"  version="0.1"  >
<UnstructuredGrid>
<Piece  NumberOfPoints="72" NumberOfCells="112">
<Points>
<DataArray  type="Float64"  NumberOfComponents="3"  format="ascii">0 0 0  1 0 0  2 0 0  3 0 0  4 0 0  5 0 0  6 0 0  7 0 0  0 1 0  1 1 0  2 1 0  3 1 0  4 1 0  5 1 0  6 1 0  7 1 0  0 2 0  1 2 0  2 2 0  3 2 0  4 2 0  5 2 0  6 2 0  7 2 0  0 3 0  1 3 0  2 3 0  3 3 0  4 3 0  5 3 0  6 3 0  7 3 0  0 4 0  1 4 0  2 4 0  3 4 0  4 4 0  5 4 0  6 4 0  7 4 0  0 5 0  1 5 0  2 5 0  3 5 0  4 5 0  5 5 0  6 5 0  7 5 0  0 6 0  1 6 0  2 6 0  3 6 0  4 6 0  5 6 0  6 6 0  7 6 0  0 7 0  1 7 0  2 7 0  3 7 0  4 7 0  5 7 0  6 7 0  7 7 0  0 8 0  1 8 0  2 8 0  3 8 0  4 8 0  5 8 0  6 8 0  7 8 0  </DataArray>
</Points>
<Cells>
<DataArray  type="UInt32"  Name="connectivity"  format="ascii">0 8 9  0 1 9  1 9 10  1 2 10  2 10 11  2 3 11  3 11 12  3 4 12  4 12 13  4 5 13  5 13 14  5 6 14  6 14 15  6 7 15  8 16 17  8 9 17  9 17 18  9 10 18  10 18 19  10 11 19  11 19 20  11 12 20  12 20 21  12 13 21  13 21 22  13 14 22  14 22 23  14 15 23  16 24 25  16 17 25  17 25 26  17 18 26  18 26 27  18 19 27  19 27 28  19 20 28  20 28 29  20 21 29  21 29 30  21 22 30  22 30 31  22 23 31  24 32 33  24 25 33  25 33 34  25 26 34  26 34 35  26 27 35  27 35 36  27 28 36  28 36 37  28 29 37  29 37 38  29 30 38  30 38 39  30 31 39  32 40 41  32 33 41  33 41 42  33 34 42  34 42 43  34 35 43  35 43 44  35 36 44  36 44 45  36 37 45  37 45 46  37 38 46  38 46 47  38 39 47  40 48 49  40 41 49  41 49 50  41 42 50  42 50 51  42 43 51  43 51 52  43 44 52  44 52 53  44 45 53  45 53 54  45 46 54  46 54 55  46 47 55  48 56 57  48 49 57  49 57 58  49 50 58  50 58 59  50 51 59  51 59 60  51 52 60  52 60 61  52 53 61  53 61 62  53 54 62  54 62 63  54 55 63  56 64 65  56 57 65  57 65 66  57 58 66  58 66 67  58 59 67  59 67 68  59 60 68  60 68 69  60 61 69  61 69 70  61 62 70  62 70 71  62 63 71  </DataArray>
<DataArray  type="UInt32"  Name="offsets"  format="ascii">3 6 9 12 15 18 21 24 27 30 33 36 39 42 45 48 51 54 57 60 63 66 69 72 75 78 81 84 87 90 93 96 99 102 105 108 111 114 117 120 123 126 129 132 135 138 141 144 147 150 153 156 159 162 165 168 171 174 177 180 183 186 189 192 195 198 201 204 207 210 213 216 219 222 225 228 231 234 237 240 243 246 249 252 255 258 261 264 267 270 273 276 279 282 285 288 291 294 297 300 303 306 309 312 315 318 321 324 327 330 333 336 </DataArray>
<DataArray  type="UInt8"  Name="types"  format="ascii">5 5 5 5 5 5 5 5 5 5 5 5 5 5 5 5 5 5 5 5 5 5 5 5 5 5 5 5 5 5 5 5 5 5 5 5 5 5 5 5 5 5 5 5 5 5 5 5 5 5 5 5 5 5 5 5 5 5 5 5 5 5 5 5 5 5 5 5 5 5 5 5 5 5 5 5 5 5 5 5 5 5 5 5 5 5 5 5 5 5 5 5 5 5 5 5 5 5 5 5 5 5 5 5 5 5 5 5 5 5 5 5 </DataArray>
</Cells>
<PointData  Scalars="ControlVisualization"> 
<DataArray  type="Float64"  Name="ControlVisualization"  format="ascii">1.0197541706515767e+00  1.1155933681274439e+00  1.0828819947403361e+00  1.0420160549506203e+00  1.1783492895207475e+00  1.3507649550600667e+00  1.3510519070246121e+00  1.3686501883686744e+00  1.0453224959410112e+00  1.1279994380970351e+00  1.1953668217513072e+00  1.1650160444500841e+00  1.2316498645631824e+00  1.3138264821911296e+00  1.2874168554617367e+00  1.2481873285073646e+00  1.0354591999928076e+00  1.1416476856919870e+00  1.4187260411978104e+00  1.5415248546472953e+00  1.4836801101148962e+00  1.3848685252545654e+00  1.2004176395079580e+00  1.1016245739980082e+00  1.0906933973860435e+00  1.1550819668879591e+00  1.5035639169222024e+00  1.8730470530159236e+00  1.8461060393879052e+00  1.5267337100951144e+00  1.2137244696509217e+00  1.0899764750172400e+00  1.1618895674066969e+00  1.1501324247408558e+00  1.3680486399118228e+00  1.7413942454171816e+00  1.8402168286088998e+00  1.5865067864159097e+00  1.3011592363989612e+00  1.1890084066523956e+00  1.1327954509918094e+00  1.1146427968251142e+00  1.1263760860095393e+00  1.3158206610075296e+00  1.4634673727686702e+00  1.3594244083477414e+00  1.2629904131093086e+00  1.2062513467596736e+00  1.0683160108106817e+00  1.0547194229382206e+00  1.0061323292561228e+00  1.0064103668719528e+00  1.0151931285913596e+00  1.0528119796528719e+00  1.0802050066258881e+00  1.1056437136180428e+00  1.0543550338197918e+00  1.0197952001853108e+00  1.0061815347879188e+00  1.0023786519807780e+00  1.0018905421175306e+00  1.0034338434775298e+00  1.0176986283320610e+00  1.0409719190434541e+00  1.0787782278126710e+00  1.0415091019346630e+00  1.0201309599605053e+00  1.0052469551303316e+00  1.0005387621927755e+00  1.0088412285232766e+00  1.0126962122395384e+00  1.0381786698059381e+00  </DataArray> 
</PointData> 
</Piece>
</UnstructuredGrid>
</VTKFile>