<?xml version="1.0"?>
<VTKFile type="UnstructuredGrid"  version="0.1"  >
<UnstructuredGrid>
<Piece  NumberOfPoints="72" NumberOfCells="112">
<Points>
<DataArray  type="Float64"  NumberOfComponents="3"  format="ascii">0 0 0  1 0 0  2 0 0  3 0 0  4 0 0  5 0 0  6 0 0  7 0 0  0 1 0  1 1 0  2 1 0  3 1 0  4 1 0  5 1 0  6 1 0  7 1 0  0 2 0  1 2 0  2 2 0  3 2 0  4 2 0  5 2 0  6 2 0  7 2 0  0 3 0  1 3 0  2 3 0  3 3 0  4 3 0  5 3 0  6 3 0  7 3 0  0 4 0  1 4 0  2 4 0  3 4 0  4 4 0  5 4 0  6 4 0  7 4 0  0 5 0  1 5 0  2 5 0  3 5 0  4 5 0  5 5 0  6 5 0  7 5 0  0 6 0  1 6 0  2 6 0  3 6 0  4 6 0  5 6 0  6 6 0  7 6 0  0 7 0  1 7 0  2 7 0  3 7 0  4 7 0  5 7 0  6 7 0  7 7 0  0 8 0  1 8 0  2 8 0  3 8 0  4 8 0  5 8 0  6 8 0  7 8 0  </DataArray>
</Points>
<Cells>
<DataArray  type="UInt32"  Name="connectivity"  format="ascii">0 8 9  0 1 9  1 9 10  1 2 10  2 10 11  2 3 11  3 11 12  3 4 12  4 12 13  4 5 13  5 13 14  5 6 14  6 14 15  6 7 15  8 16 17  8 9 17  9 17 18  9 10 18  10 18 19  10 11 19  11 19 20  11 12 20  12 20 21  12 13 21  13 21 22  13 14 22  14 22 23  14 15 23  16 24 25  16 17 25  17 25 26  17 18 26  18 26 27  18 19 27  19 27 28  19 20 28  20 28 29  20 21 29  21 29 30  21 22 30  22 30 31  22 23 31  24 32 33  24 25 33  25 33 34  25 26 34  26 34 35  26 27 35  27 35 36  27 28 36  28 36 37  28 29 37  29 37 38  29 30 38  30 38 39  30 31 39  32 40 41  32 33 41  33 41 42  33 34 42  34 42 43  34 35 43  35 43 44  35 36 44  36 44 45  36 37 45  37 45 46  37 38 46  38 46 47  38 39 47  40 48 49  40 41 49  41 49 50  41 42 50  42 50 51  42 43 51  43 51 52  43 44 52  44 52 53  44 45 53  45 53 54  45 46 54  46 54 55  46 47 55  48 56 57  48 49 57  49 57 58  49 50 58  50 58 59  50 51 59  51 59 60  51 52 60  52 60 61  52 53 61  53 61 62  53 54 62  54 62 63  54 55 63  56 64 65  56 57 65  57 65 66  57 58 66  58 66 67  58 59 67  59 67 68  59 60 68  60 68 69  60 61 69  61 69 70  61 62 70  62 70 71  62 63 71  </DataArray>
<DataArray  type="UInt32"  Name="offsets"  format="ascii">3 6 9 12 15 18 21 24 27 30 33 36 39 42 45 48 51 54 57 60 63 66 69 72 75 78 81 84 87 90 93 96 99 102 105 108 111 114 117 120 123 126 129 132 135 138 141 144 147 150 153 156 159 162 165 168 171 174 177 180 183 186 189 192 195 198 201 204 207 210 213 216 219 222 225 228 231 234 237 240 243 246 249 252 255 258 261 264 267 270 273 276 279 282 285 288 291 294 297 300 303 306 309 312 315 318 321 324 327 330 333 336 </DataArray>
<DataArray  type="UInt8"  Name="types"  format="ascii">5 5 5 5 5 5 5 5 5 5 5 5 5 5 5 5 5 5 5 5 5 5 5 5 5 5 5 5 5 5 5 5 5 5 5 5 5 5 5 5 5 5 5 5 5 5 5 5 5 5 5 5 5 5 5 5 5 5 5 5 5 5 5 5 5 5 5 5 5 5 5 5 5 5 5 5 5 5 5 5 5 5 5 5 5 5 5 5 5 5 5 5 5 5 5 5 5 5 5 5 5 5 5 5 5 5 5 5 5 5 5 5 </DataArray>
</Cells>
<PointData  Scalars="ControlVisualization"> 
<DataArray  type="Float64"  Name="ControlVisualization"  format="ascii">5.9369677251390911e+00  6.8424678483738921e+00  7.9645877272779879e+00  8.1526562756741523e+00  8.2039246483807009e+00  7.9423988468607867e+00  6.9043830538401094e+00  6.1015368650944275e+00  5.4068936912249681e+00  6.3429579433530430e+00  7.0019834102693190e+00  7.8484392098433489e+00  7.8870111615553213e+00  7.3281171158237299e+00  6.4378737257847929e+00  5.8674860368500399e+00  4.6083090990233071e+00  6.0391045069644509e+00  7.0771721529949243e+00  7.7817731117609883e+00  7.8724604153692654e+00  7.0583417601210332e+00  5.9182145464203959e+00  4.8439007941094410e+00  4.4451945372895576e+00  5.2476560826668672e+00  6.4341714509111547e+00  7.2773650915030581e+00  7.2093944273536552e+00  6.3791767571324849e+00  5.2695430049590088e+00  4.2825805621362694e+00  4.5592520817620530e+00  4.9457866936821118e+00  5.5031686322653508e+00  6.2478434349519141e+00  6.3492555582074761e+00  5.7081940581306405e+00  4.9220008111878908e+00  4.3531418700581241e+00  4.8818566395875100e+00  4.7934173902339561e+00  4.8925131388952900e+00  5.1807373118793549e+00  5.3158179674799362e+00  5.1018839879149214e+00  4.7998632001236903e+00  4.6681520556643932e+00  5.2248651443545118e+00  4.9016633640799512e+00  4.6189429370360955e+00  4.5323167838839371e+00  4.5735097123860502e+00  4.6946274449265735e+00  4.8262459641728688e+00  5.0102606377539018e+00  5.5208582047147949e+00  5.1981485575461841e+00  4.8051165991354070e+00  4.5210556293226052e+00  4.4646792253182488e+00  4.6773459836409126e+00  5.0189543675015011e+00  5.3228744863055901e+00  5.8289296970836793e+00  5.4903470608927369e+00  5.1070523823337108e+00  4.7600274302805063e+00  4.6488032102911818e+00  4.8580923541844587e+00  5.2595377035443320e+00  5.6311800597029658e+00  </DataArray> 
</PointData> 
</Piece>
</UnstructuredGrid>
</VTKFile>