<?xml version="1.0"?>
<VTKFile type="UnstructuredGrid"  version="0.1"  >
<UnstructuredGrid>
<Piece  NumberOfPoints="72" NumberOfCells="112">
<Points>
<DataArray  type="Float64"  NumberOfComponents="3"  format="ascii">0 0 0  1 0 0  2 0 0  3 0 0  4 0 0  5 0 0  6 0 0  7 0 0  0 1 0  1 1 0  2 1 0  3 1 0  4 1 0  5 1 0  6 1 0  7 1 0  0 2 0  1 2 0  2 2 0  3 2 0  4 2 0  5 2 0  6 2 0  7 2 0  0 3 0  1 3 0  2 3 0  3 3 0  4 3 0  5 3 0  6 3 0  7 3 0  0 4 0  1 4 0  2 4 0  3 4 0  4 4 0  5 4 0  6 4 0  7 4 0  0 5 0  1 5 0  2 5 0  3 5 0  4 5 0  5 5 0  6 5 0  7 5 0  0 6 0  1 6 0  2 6 0  3 6 0  4 6 0  5 6 0  6 6 0  7 6 0  0 7 0  1 7 0  2 7 0  3 7 0  4 7 0  5 7 0  6 7 0  7 7 0  0 8 0  1 8 0  2 8 0  3 8 0  4 8 0  5 8 0  6 8 0  7 8 0  </DataArray>
</Points>
<Cells>
<DataArray  type="UInt32"  Name="connectivity"  format="ascii">0 8 9  0 1 9  1 9 10  1 2 10  2 10 11  2 3 11  3 11 12  3 4 12  4 12 13  4 5 13  5 13 14  5 6 14  6 14 15  6 7 15  8 16 17  8 9 17  9 17 18  9 10 18  10 18 19  10 11 19  11 19 20  11 12 20  12 20 21  12 13 21  13 21 22  13 14 22  14 22 23  14 15 23  16 24 25  16 17 25  17 25 26  17 18 26  18 26 27  18 19 27  19 27 28  19 20 28  20 28 29  20 21 29  21 29 30  21 22 30  22 30 31  22 23 31  24 32 33  24 25 33  25 33 34  25 26 34  26 34 35  26 27 35  27 35 36  27 28 36  28 36 37  28 29 37  29 37 38  29 30 38  30 38 39  30 31 39  32 40 41  32 33 41  33 41 42  33 34 42  34 42 43  34 35 43  35 43 44  35 36 44  36 44 45  36 37 45  37 45 46  37 38 46  38 46 47  38 39 47  40 48 49  40 41 49  41 49 50  41 42 50  42 50 51  42 43 51  43 51 52  43 44 52  44 52 53  44 45 53  45 53 54  45 46 54  46 54 55  46 47 55  48 56 57  48 49 57  49 57 58  49 50 58  50 58 59  50 51 59  51 59 60  51 52 60  52 60 61  52 53 61  53 61 62  53 54 62  54 62 63  54 55 63  56 64 65  56 57 65  57 65 66  57 58 66  58 66 67  58 59 67  59 67 68  59 60 68  60 68 69  60 61 69  61 69 70  61 62 70  62 70 71  62 63 71  </DataArray>
<DataArray  type="UInt32"  Name="offsets"  format="ascii">3 6 9 12 15 18 21 24 27 30 33 36 39 42 45 48 51 54 57 60 63 66 69 72 75 78 81 84 87 90 93 96 99 102 105 108 111 114 117 120 123 126 129 132 135 138 141 144 147 150 153 156 159 162 165 168 171 174 177 180 183 186 189 192 195 198 201 204 207 210 213 216 219 222 225 228 231 234 237 240 243 246 249 252 255 258 261 264 267 270 273 276 279 282 285 288 291 294 297 300 303 306 309 312 315 318 321 324 327 330 333 336 </DataArray>
<DataArray  type="UInt8"  Name="types"  format="ascii">5 5 5 5 5 5 5 5 5 5 5 5 5 5 5 5 5 5 5 5 5 5 5 5 5 5 5 5 5 5 5 5 5 5 5 5 5 5 5 5 5 5 5 5 5 5 5 5 5 5 5 5 5 5 5 5 5 5 5 5 5 5 5 5 5 5 5 5 5 5 5 5 5 5 5 5 5 5 5 5 5 5 5 5 5 5 5 5 5 5 5 5 5 5 5 5 5 5 5 5 5 5 5 5 5 5 5 5 5 5 5 5 </DataArray>
</Cells>
<PointData  Scalars="ControlVisualization"> 
<DataArray  type="Float64"  Name="ControlVisualization"  format="ascii">6.4917382771314980e+00  7.1399359134644396e+00  7.6733523272679047e+00  7.7861260564099002e+00  7.9620196040311386e+00  7.8456938054360155e+00  7.4585703012878906e+00  7.1632554488444411e+00  6.2388777761392786e+00  6.8155259605668190e+00  7.0179891390706288e+00  7.4090234427012174e+00  7.1634059977127169e+00  7.5161261698028756e+00  7.0552898014961762e+00  7.0303058923704018e+00  5.9065192062817378e+00  6.3297588440634387e+00  6.9764622281739879e+00  7.0154889796656246e+00  7.5033818291202934e+00  6.6613271107999914e+00  6.5879723125219254e+00  6.2190605517058444e+00  5.4805938876730274e+00  5.8270007010452156e+00  6.0571320885168500e+00  6.5879973803506173e+00  6.2980146633841922e+00  6.1772991433518420e+00  5.7124712576153760e+00  5.5278732789370242e+00  4.9618906187188401e+00  5.1092346298021933e+00  5.0431520452579157e+00  5.6505587437222280e+00  5.6954888147818385e+00  5.2137478746030022e+00  5.0485475939479318e+00  4.8070602854246500e+00  4.4275834455153777e+00  4.2554455034745029e+00  4.6676223557680148e+00  4.7606507627366641e+00  4.8588313338091789e+00  4.5864220224618446e+00  4.2428574169698692e+00  4.0619749307480486e+00  3.9246103841551019e+00  4.0737502257403007e+00  3.8942912326187566e+00  4.0299748686805801e+00  3.9247324286377201e+00  3.8047470736674951e+00  3.6499128108939072e+00  3.5352958455405030e+00  3.8241812978530252e+00  3.7148878510887626e+00  3.6322833925770852e+00  3.3803567319710943e+00  3.2858926385970344e+00  3.2571434586032413e+00  3.3164789155957717e+00  3.3389001647442313e+00  3.9951092735065612e+00  3.7297223278945713e+00  3.4298441224979515e+00  3.1423162162019271e+00  2.9825633613021294e+00  3.0494182749731920e+00  3.2283401685717990e+00  3.4280125554442811e+00  </DataArray> 
</PointData> 
</Piece>
</UnstructuredGrid>
</VTKFile>