<?xml version="1.0"?>
<VTKFile type="UnstructuredGrid"  version="0.1"  >
<UnstructuredGrid>
<Piece  NumberOfPoints="72" NumberOfCells="112">
<Points>
<DataArray  type="Float64"  NumberOfComponents="3"  format="ascii">0 0 0  1 0 0  2 0 0  3 0 0  4 0 0  5 0 0  6 0 0  7 0 0  0 1 0  1 1 0  2 1 0  3 1 0  4 1 0  5 1 0  6 1 0  7 1 0  0 2 0  1 2 0  2 2 0  3 2 0  4 2 0  5 2 0  6 2 0  7 2 0  0 3 0  1 3 0  2 3 0  3 3 0  4 3 0  5 3 0  6 3 0  7 3 0  0 4 0  1 4 0  2 4 0  3 4 0  4 4 0  5 4 0  6 4 0  7 4 0  0 5 0  1 5 0  2 5 0  3 5 0  4 5 0  5 5 0  6 5 0  7 5 0  0 6 0  1 6 0  2 6 0  3 6 0  4 6 0  5 6 0  6 6 0  7 6 0  0 7 0  1 7 0  2 7 0  3 7 0  4 7 0  5 7 0  6 7 0  7 7 0  0 8 0  1 8 0  2 8 0  3 8 0  4 8 0  5 8 0  6 8 0  7 8 0  </DataArray>
</Points>
<Cells>
<DataArray  type="UInt32"  Name="connectivity"  format="ascii">0 8 9  0 1 9  1 9 10  1 2 10  2 10 11  2 3 11  3 11 12  3 4 12  4 12 13  4 5 13  5 13 14  5 6 14  6 14 15  6 7 15  8 16 17  8 9 17  9 17 18  9 10 18  10 18 19  10 11 19  11 19 20  11 12 20  12 20 21  12 13 21  13 21 22  13 14 22  14 22 23  14 15 23  16 24 25  16 17 25  17 25 26  17 18 26  18 26 27  18 19 27  19 27 28  19 20 28  20 28 29  20 21 29  21 29 30  21 22 30  22 30 31  22 23 31  24 32 33  24 25 33  25 33 34  25 26 34  26 34 35  26 27 35  27 35 36  27 28 36  28 36 37  28 29 37  29 37 38  29 30 38  30 38 39  30 31 39  32 40 41  32 33 41  33 41 42  33 34 42  34 42 43  34 35 43  35 43 44  35 36 44  36 44 45  36 37 45  37 45 46  37 38 46  38 46 47  38 39 47  40 48 49  40 41 49  41 49 50  41 42 50  42 50 51  42 43 51  43 51 52  43 44 52  44 52 53  44 45 53  45 53 54  45 46 54  46 54 55  46 47 55  48 56 57  48 49 57  49 57 58  49 50 58  50 58 59  50 51 59  51 59 60  51 52 60  52 60 61  52 53 61  53 61 62  53 54 62  54 62 63  54 55 63  56 64 65  56 57 65  57 65 66  57 58 66  58 66 67  58 59 67  59 67 68  59 60 68  60 68 69  60 61 69  61 69 70  61 62 70  62 70 71  62 63 71  </DataArray>
<DataArray  type="UInt32"  Name="offsets"  format="ascii">3 6 9 12 15 18 21 24 27 30 33 36 39 42 45 48 51 54 57 60 63 66 69 72 75 78 81 84 87 90 93 96 99 102 105 108 111 114 117 120 123 126 129 132 135 138 141 144 147 150 153 156 159 162 165 168 171 174 177 180 183 186 189 192 195 198 201 204 207 210 213 216 219 222 225 228 231 234 237 240 243 246 249 252 255 258 261 264 267 270 273 276 279 282 285 288 291 294 297 300 303 306 309 312 315 318 321 324 327 330 333 336 </DataArray>
<DataArray  type="UInt8"  Name="types"  format="ascii">5 5 5 5 5 5 5 5 5 5 5 5 5 5 5 5 5 5 5 5 5 5 5 5 5 5 5 5 5 5 5 5 5 5 5 5 5 5 5 5 5 5 5 5 5 5 5 5 5 5 5 5 5 5 5 5 5 5 5 5 5 5 5 5 5 5 5 5 5 5 5 5 5 5 5 5 5 5 5 5 5 5 5 5 5 5 5 5 5 5 5 5 5 5 5 5 5 5 5 5 5 5 5 5 5 5 5 5 5 5 5 5 </DataArray>
</Cells>
<PointData  Scalars="ControlVisualization"> 
<DataArray  type="Float64"  Name="ControlVisualization"  format="ascii">1.0127139736652415e+00  1.1959061661121551e+00  1.2120390606358535e+00  1.1088491207360935e+00  1.2482819937468832e+00  1.6153921833588518e+00  1.6479580723636567e+00  1.5608616650420686e+00  1.0140803008432138e+00  1.2134120731938436e+00  1.3556941048048241e+00  1.2881301358448183e+00  1.3313317918706857e+00  1.5188392976946188e+00  1.5097069087640533e+00  1.4571550499436645e+00  1.1401188657023029e+00  1.2432654340720433e+00  1.5482700372324416e+00  1.6294669249454961e+00  1.5608164750750180e+00  1.4910957613441329e+00  1.3331490794025755e+00  1.2415017251991358e+00  1.2198677951227670e+00  1.2675065394898897e+00  1.6182600299175398e+00  1.9383239529687255e+00  1.9052412478808103e+00  1.6196139754410761e+00  1.3345818746920650e+00  1.2254238952997882e+00  1.2234916553735453e+00  1.2103970599546856e+00  1.4221943786128737e+00  1.7932368194471280e+00  1.8798307048735778e+00  1.6466854566025826e+00  1.3544747290411707e+00  1.2901273027839293e+00  1.1543859489929911e+00  1.1204893116537229e+00  1.1719193784827739e+00  1.3169409401508099e+00  1.4965343824061139e+00  1.3959344985887716e+00  1.2764444034277640e+00  1.2134472078416771e+00  1.1152140274107700e+00  1.0917979266933870e+00  1.0151527565957164e+00  1.0404115673537517e+00  1.0754135281147306e+00  1.0997076056356616e+00  1.1205126845702511e+00  1.1235411496796803e+00  1.1246669743194777e+00  1.0647794590936694e+00  1.0443404878750788e+00  1.0101059283238860e+00  1.0070731281311094e+00  1.0163522412042865e+00  1.0650060372721357e+00  1.1185267931500265e+00  1.1603341446140862e+00  1.1363648627492107e+00  1.1009381792424879e+00  1.0629216994258044e+00  1.0214740785471745e+00  1.0509385345464672e+00  1.0987296187647928e+00  1.1861465510119100e+00  </DataArray> 
</PointData> 
</Piece>
</UnstructuredGrid>
</VTKFile>