<?xml version="1.0"?>
<VTKFile type="UnstructuredGrid"  version="0.1"  >
<UnstructuredGrid>
<Piece  NumberOfPoints="72" NumberOfCells="112">
<Points>
<DataArray  type="Float64"  NumberOfComponents="3"  format="ascii">0 0 0  1 0 0  2 0 0  3 0 0  4 0 0  5 0 0  6 0 0  7 0 0  0 1 0  1 1 0  2 1 0  3 1 0  4 1 0  5 1 0  6 1 0  7 1 0  0 2 0  1 2 0  2 2 0  3 2 0  4 2 0  5 2 0  6 2 0  7 2 0  0 3 0  1 3 0  2 3 0  3 3 0  4 3 0  5 3 0  6 3 0  7 3 0  0 4 0  1 4 0  2 4 0  3 4 0  4 4 0  5 4 0  6 4 0  7 4 0  0 5 0  1 5 0  2 5 0  3 5 0  4 5 0  5 5 0  6 5 0  7 5 0  0 6 0  1 6 0  2 6 0  3 6 0  4 6 0  5 6 0  6 6 0  7 6 0  0 7 0  1 7 0  2 7 0  3 7 0  4 7 0  5 7 0  6 7 0  7 7 0  0 8 0  1 8 0  2 8 0  3 8 0  4 8 0  5 8 0  6 8 0  7 8 0  </DataArray>
</Points>
<Cells>
<DataArray  type="UInt32"  Name="connectivity"  format="ascii">0 8 9  0 1 9  1 9 10  1 2 10  2 10 11  2 3 11  3 11 12  3 4 12  4 12 13  4 5 13  5 13 14  5 6 14  6 14 15  6 7 15  8 16 17  8 9 17  9 17 18  9 10 18  10 18 19  10 11 19  11 19 20  11 12 20  12 20 21  12 13 21  13 21 22  13 14 22  14 22 23  14 15 23  16 24 25  16 17 25  17 25 26  17 18 26  18 26 27  18 19 27  19 27 28  19 20 28  20 28 29  20 21 29  21 29 30  21 22 30  22 30 31  22 23 31  24 32 33  24 25 33  25 33 34  25 26 34  26 34 35  26 27 35  27 35 36  27 28 36  28 36 37  28 29 37  29 37 38  29 30 38  30 38 39  30 31 39  32 40 41  32 33 41  33 41 42  33 34 42  34 42 43  34 35 43  35 43 44  35 36 44  36 44 45  36 37 45  37 45 46  37 38 46  38 46 47  38 39 47  40 48 49  40 41 49  41 49 50  41 42 50  42 50 51  42 43 51  43 51 52  43 44 52  44 52 53  44 45 53  45 53 54  45 46 54  46 54 55  46 47 55  48 56 57  48 49 57  49 57 58  49 50 58  50 58 59  50 51 59  51 59 60  51 52 60  52 60 61  52 53 61  53 61 62  53 54 62  54 62 63  54 55 63  56 64 65  56 57 65  57 65 66  57 58 66  58 66 67  58 59 67  59 67 68  59 60 68  60 68 69  60 61 69  61 69 70  61 62 70  62 70 71  62 63 71  </DataArray>
<DataArray  type="UInt32"  Name="offsets"  format="ascii">3 6 9 12 15 18 21 24 27 30 33 36 39 42 45 48 51 54 57 60 63 66 69 72 75 78 81 84 87 90 93 96 99 102 105 108 111 114 117 120 123 126 129 132 135 138 141 144 147 150 153 156 159 162 165 168 171 174 177 180 183 186 189 192 195 198 201 204 207 210 213 216 219 222 225 228 231 234 237 240 243 246 249 252 255 258 261 264 267 270 273 276 279 282 285 288 291 294 297 300 303 306 309 312 315 318 321 324 327 330 333 336 </DataArray>
<DataArray  type="UInt8"  Name="types"  format="ascii">5 5 5 5 5 5 5 5 5 5 5 5 5 5 5 5 5 5 5 5 5 5 5 5 5 5 5 5 5 5 5 5 5 5 5 5 5 5 5 5 5 5 5 5 5 5 5 5 5 5 5 5 5 5 5 5 5 5 5 5 5 5 5 5 5 5 5 5 5 5 5 5 5 5 5 5 5 5 5 5 5 5 5 5 5 5 5 5 5 5 5 5 5 5 5 5 5 5 5 5 5 5 5 5 5 5 5 5 5 5 5 5 </DataArray>
</Cells>
<PointData  Scalars="ControlVisualization"> 
<DataArray  type="Float64"  Name="ControlVisualization"  format="ascii">1.8730453615598102e+00  2.4001405041481441e+00  2.2461633074114769e+00  1.9340430808091862e+00  2.0332491412549922e+00  2.6356309021596616e+00  2.8602907662281791e+00  2.7812103812813045e+00  1.8389492145376241e+00  2.2140216346120818e+00  2.3299680835675685e+00  1.9757849051839396e+00  1.8168271864611061e+00  2.4399436001729948e+00  2.8541536246558072e+00  2.6652505441950520e+00  2.1193555757261571e+00  1.9936343027341006e+00  2.6423075289672839e+00  2.3884176647353876e+00  2.6433437944517348e+00  2.6828578345333662e+00  2.4266227320331488e+00  2.3487868879752805e+00  2.0439575123505476e+00  2.2247187556913146e+00  2.4115988805577508e+00  3.0311624385952527e+00  2.8361138274823916e+00  2.5935894330987104e+00  2.0121790578749690e+00  2.2651238590214935e+00  1.8779873495235546e+00  2.0191867904644534e+00  2.1938975323780241e+00  2.0028514882846871e+00  2.7777177569822356e+00  2.0623583019678775e+00  2.4032607532247390e+00  1.8062348716962424e+00  1.5174735031795592e+00  1.8572121704742146e+00  1.2135345583670347e+00  2.3787608112916847e+00  1.9985694980635880e+00  2.0670457357117753e+00  1.7598327735872465e+00  1.4684850304190329e+00  1.4231836826410567e+00  1.1462285725244101e+00  1.3654781192849019e+00  1.1482969697646079e+00  1.1512137065684596e+00  1.2164070564924587e+00  1.3690788370325828e+00  1.2539958469830434e+00  1.2670589683721687e+00  1.3158528821060029e+00  1.1258706224544075e+00  1.0003314757102511e+00  1.0085473171281618e+00  1.0000001415416628e+00  1.1434976198468969e+00  1.2177063447025256e+00  1.2114230497093201e+00  1.2456679513862063e+00  1.4055032743318718e+00  1.5664853359880442e+00  1.4197410106826600e+00  1.2392023756612049e+00  1.1535595690859637e+00  1.2958991804537618e+00  </DataArray> 
</PointData> 
</Piece>
</UnstructuredGrid>
</VTKFile>