<?xml version="1.0"?>
<VTKFile type="UnstructuredGrid"  version="0.1"  >
<UnstructuredGrid>
<Piece  NumberOfPoints="72" NumberOfCells="112">
<Points>
<DataArray  type="Float64"  NumberOfComponents="3"  format="ascii">0 0 0  1 0 0  2 0 0  3 0 0  4 0 0  5 0 0  6 0 0  7 0 0  0 1 0  1 1 0  2 1 0  3 1 0  4 1 0  5 1 0  6 1 0  7 1 0  0 2 0  1 2 0  2 2 0  3 2 0  4 2 0  5 2 0  6 2 0  7 2 0  0 3 0  1 3 0  2 3 0  3 3 0  4 3 0  5 3 0  6 3 0  7 3 0  0 4 0  1 4 0  2 4 0  3 4 0  4 4 0  5 4 0  6 4 0  7 4 0  0 5 0  1 5 0  2 5 0  3 5 0  4 5 0  5 5 0  6 5 0  7 5 0  0 6 0  1 6 0  2 6 0  3 6 0  4 6 0  5 6 0  6 6 0  7 6 0  0 7 0  1 7 0  2 7 0  3 7 0  4 7 0  5 7 0  6 7 0  7 7 0  0 8 0  1 8 0  2 8 0  3 8 0  4 8 0  5 8 0  6 8 0  7 8 0  </DataArray>
</Points>
<Cells>
<DataArray  type="UInt32"  Name="connectivity"  format="ascii">0 8 9  0 1 9  1 9 10  1 2 10  2 10 11  2 3 11  3 11 12  3 4 12  4 12 13  4 5 13  5 13 14  5 6 14  6 14 15  6 7 15  8 16 17  8 9 17  9 17 18  9 10 18  10 18 19  10 11 19  11 19 20  11 12 20  12 20 21  12 13 21  13 21 22  13 14 22  14 22 23  14 15 23  16 24 25  16 17 25  17 25 26  17 18 26  18 26 27  18 19 27  19 27 28  19 20 28  20 28 29  20 21 29  21 29 30  21 22 30  22 30 31  22 23 31  24 32 33  24 25 33  25 33 34  25 26 34  26 34 35  26 27 35  27 35 36  27 28 36  28 36 37  28 29 37  29 37 38  29 30 38  30 38 39  30 31 39  32 40 41  32 33 41  33 41 42  33 34 42  34 42 43  34 35 43  35 43 44  35 36 44  36 44 45  36 37 45  37 45 46  37 38 46  38 46 47  38 39 47  40 48 49  40 41 49  41 49 50  41 42 50  42 50 51  42 43 51  43 51 52  43 44 52  44 52 53  44 45 53  45 53 54  45 46 54  46 54 55  46 47 55  48 56 57  48 49 57  49 57 58  49 50 58  50 58 59  50 51 59  51 59 60  51 52 60  52 60 61  52 53 61  53 61 62  53 54 62  54 62 63  54 55 63  56 64 65  56 57 65  57 65 66  57 58 66  58 66 67  58 59 67  59 67 68  59 60 68  60 68 69  60 61 69  61 69 70  61 62 70  62 70 71  62 63 71  </DataArray>
<DataArray  type="UInt32"  Name="offsets"  format="ascii">3 6 9 12 15 18 21 24 27 30 33 36 39 42 45 48 51 54 57 60 63 66 69 72 75 78 81 84 87 90 93 96 99 102 105 108 111 114 117 120 123 126 129 132 135 138 141 144 147 150 153 156 159 162 165 168 171 174 177 180 183 186 189 192 195 198 201 204 207 210 213 216 219 222 225 228 231 234 237 240 243 246 249 252 255 258 261 264 267 270 273 276 279 282 285 288 291 294 297 300 303 306 309 312 315 318 321 324 327 330 333 336 </DataArray>
<DataArray  type="UInt8"  Name="types"  format="ascii">5 5 5 5 5 5 5 5 5 5 5 5 5 5 5 5 5 5 5 5 5 5 5 5 5 5 5 5 5 5 5 5 5 5 5 5 5 5 5 5 5 5 5 5 5 5 5 5 5 5 5 5 5 5 5 5 5 5 5 5 5 5 5 5 5 5 5 5 5 5 5 5 5 5 5 5 5 5 5 5 5 5 5 5 5 5 5 5 5 5 5 5 5 5 5 5 5 5 5 5 5 5 5 5 5 5 5 5 5 5 5 5 </DataArray>
</Cells>
<PointData  Scalars="ControlVisualization"> 
<DataArray  type="Float64"  Name="ControlVisualization"  format="ascii">1.0523747720227270e+00  1.1134707216033051e+00  1.0743576291996206e+00  1.0000389140894637e+00  1.1182217670343149e+00  1.2839434592493844e+00  1.2651030331934550e+00  1.2179619999243081e+00  1.0207526416574375e+00  1.1190058253170847e+00  1.1955944729553416e+00  1.1433356688425445e+00  1.1703292117824078e+00  1.2623572994075412e+00  1.2244680390138067e+00  1.1732043884998280e+00  1.0230564024915711e+00  1.1349077105488066e+00  1.4166109781532443e+00  1.5213957783518306e+00  1.4519418628696132e+00  1.3114547965243939e+00  1.1438402891444459e+00  1.0592281904043832e+00  1.1013228828791239e+00  1.1462763970661944e+00  1.5110272683869974e+00  1.8477734775416659e+00  1.8072092776286663e+00  1.4868221549708835e+00  1.1799580647331465e+00  1.0551452662513161e+00  1.1619574531525463e+00  1.1480870726504393e+00  1.3509911801949428e+00  1.7354187472193925e+00  1.8189385879632898e+00  1.5554128556639255e+00  1.2656101392122654e+00  1.1584885265678204e+00  1.1252492993264340e+00  1.0997334899654312e+00  1.1070015211374282e+00  1.2986827874206495e+00  1.4232399860071840e+00  1.3367328379532242e+00  1.2026544301657232e+00  1.1650551710671060e+00  1.0501444239574591e+00  1.0336935370153808e+00  1.0000333901836738e+00  1.0000222800684031e+00  1.0138628665752096e+00  1.0419670137586234e+00  1.0462899885356272e+00  1.0586889644214617e+00  1.0074043285494945e+00  1.0000399735098779e+00  1.0000213645076870e+00  1.0000102039154508e+00  1.0000085564633685e+00  1.0000128886650343e+00  1.0000423008240260e+00  1.0002450045086224e+00  1.0080287938365542e+00  9.9999999046962817e-01  1.0000733206088757e+00  1.0000266484242082e+00  1.0000186441747534e+00  1.0000211699856933e+00  1.0000451079801471e+00  1.0001514137422574e+00  </DataArray> 
</PointData> 
</Piece>
</UnstructuredGrid>
</VTKFile>